
                                 *****************
                                 * O   R   C   A *
                                 *****************

                                            #,                                       
                                            ###                                      
                                            ####                                     
                                            #####                                    
                                            ######                                   
                                           ########,                                 
                                     ,,################,,,,,                         
                               ,,#################################,,                 
                          ,,##########################################,,             
                       ,#########################################, ''#####,          
                    ,#############################################,,   '####,        
                  ,##################################################,,,,####,       
                ,###########''''           ''''###############################       
              ,#####''   ,,,,##########,,,,          '''####'''          '####       
            ,##' ,,,,###########################,,,                        '##       
           ' ,,###''''                  '''############,,,                           
         ,,##''                                '''############,,,,        ,,,,,,###''
      ,#''                                            '''#######################'''  
     '                                                          ''''####''''         
             ,#######,   #######,   ,#######,      ##                                
            ,#'     '#,  ##    ##  ,#'     '#,    #''#        ,####,    ,#,          
            ##       ##  ##   ,#'  ##            #'  '#       #'       ,# #          
            ##       ##  #######   ##           ,######,      #####,      #          
            '#,     ,#'  ##    ##  '#,     ,#' ,#      #,     #,   #      #          
             '#######'   ##     ##  '#######'  #'      '#     '####' #    #          



                #########################################################
                #                        -***-                          #
                #          Department of theory and spectroscopy        #
                #                                                       #
                #                      Frank Neese                      #
                #                                                       #
                #     Directorship, Architecture, Infrastructure        #
                #                    SHARK, DRIVERS                     #
                #        Core code/Algorithms in most modules           #
                #                                                       #
                #        Max Planck Institute fuer Kohlenforschung      #
                #                Kaiser Wilhelm Platz 1                 #
                #                 D-45470 Muelheim/Ruhr                 #
                #                      Germany                          #
                #                                                       #
                #                  All rights reserved                  #
                #                        -***-                          #
                #########################################################


                         Program Version 6.1.1  -  RELEASE   -
                                (GIT: $487d211c$)
                          ($2025-11-21 10:33:24 +0100$)


 With contributions from (in alphabetic order):
[Max-Planck-Institut fuer Kohlenforschung]                               
  Daniel Aravena         : Magnetic Suceptibility                        
  Michael Atanasov       : Ab Initio Ligand Field Theory (pilot matlab implementation)
  Alexander A. Auer      : GIAO ZORA, VPT2 properties, NMR spectrum      
  Ute Becker             : All parallelization in ORCA, NUMFREQ, NUMCALC 
  Giovanni Bistoni       : ED, misc. LED, open-shell LED, HFLD           
  Dmytro Bykov           : pre 5.0 version of the SCF Hessian            
  Marcos Casanova-Páez   : Triplet and SCS-CIS(D). UHF-(DLPNO)-IP/EA/STEOM-CCSD. UHF-CVS-IP/STEOM-CCSD   
  Vijay G. Chilkuri      : MRCI spin determinant printing, contributions to CSF-ICE 
  Pauline Colinet        : FMM embedding                                 
  Dipayan Datta          : RHF DLPNO-CCSD density                        
  Achintya Kumar Dutta   : EOM-CC, STEOM-CC                              
  Nicolas Foglia         : Exact transition moments, OPA infrastructure, MCD improvements    
  Dmitry Ganyushin       : Spin-Orbit,Spin-Spin,Magnetic field MRCI      
  Miquel Garcia-Rates    : C-PCM and meta-GGA Hessian, CCSD/C-PCM, Gaussian charge scheme 
  Tiago L. C. Gouveia    : GS-ROHF, GS-ROCIS                             
  Yang Guo               : DLPNO-NEVPT2, F12-NEVPT2, CIM, IAO-localization        
  Andreas Hansen         : Spin unrestricted coupled pair/coupled cluster methods 
  Ingolf Harden          : AUTO-CI MPn and infrastructure                
  Benjamin Helmich-Paris : MC-RPA, TRAH-(SCF,CASSCF), AVAS, COSX integrals, SCF dyn. polar., MC-PDFT, srDFT 
  Lee Huntington         : MR-EOM, pCC                                   
  Robert Izsak           : Overlap fitted RIJCOSX, COSX-SCS-MP3, EOM     
  Riya Kayal             : Wick's Theorem for AUTO-CI, AUTO-CI UHF-CCSDT 
  Emily Kempfer          : AUTO-CI RHF CISDT and CCSDT, approximate NEVPT4
  Christian Kollmar      : KDIIS, OOCD, Brueckner-CCSD(T), CCSD density, CASPT2, CASPT2-K, improved NEVPT2 
  Axel Koslowski         : Symmetry handling                             
  Simone Kossmann        : meta-GGA functionals, TD-DFT gradient, OOMP2, (MP2 Hessian; deprecated post 5.0) 
  Lucas Lang             : DCDCAS, Hyperfine gauge corrections, ICE-SOC+SSC
  Marvin Lechner         : AUTO-CI (C++ implementation), FIC-MRCC        
  Spencer Leger          : CASSCF response                               
  Dagmar Lenk            : GEPOL surface, SMD, ORCA-2-JSON               
  Dimitrios Liakos       : Extrapolation schemes; Compound Job, Property file
  Dimitrios Manganas     : Further ROCIS development; embedding schemes. LFT, Crystal Embedding 
  Dimitrios Pantazis     : SARC Basis sets                               
  Anastasios Papadopoulos: AUTO-CI, single reference methods and gradients 
  Taras Petrenko         : pre 6.0 DFT Hessian and TD-DFT gradient,  ECA, NRVS 
  Petra Pikulova         : Analytic Raman intensities                    
  Peter Pinski           : DLPNO-MP2, DLPNO-MP2 Gradient                 
  Shashank Vittal Rao    : ES-AILFT, MagRelax                            
  Christoph Reimann      : Effective Core Potentials                     
  Marius Retegan         : Local ZFS, SOC                                
  Christoph Riplinger    : Optimizer, TS searches, QM/MM, DLPNO-CCSD(T), (RO)-DLPNO pert. Triples 
  Michael Roemelt        : Original ROCIS implementation, recursive CI coupling coefficients
  Masaaki Saitow         : Open-shell DLPNO-CCSD energy and density      
  Barbara Sandhoefer     : DKH picture change effects                    
  Yorick L. A. Schmerwitz: GMF and freeze-and-release deltaSCF, NEB S-IDPP initial path                    
  Kantharuban Sivalingam : CASSCF convergence/infrastructure, NEVPT2, NEVPT3, NEVPT4(SD), FIC-MRCI and CEPA variants
  Bernardo de Souza      : ESD, SOC TD-DFT                               
  Georgi L. Stoychev     : AutoAux, RI-MP2 NMR, DLPNO-MP2 response, X2C  
  Van Anh Tran           : RI-MP2 g-tensors                              
  Willem Van den Heuvel  : Paramagnetic NMR                              
  Zikuan Wang            : NOTCH, Electric field optimization            
  Frank Wennmohs         : Technical directorship and infrastructure     
  Hang Xu                : AUTO-CI-Response properties                   
                                                                         
[FACCTs GmbH]                                                            
  Markus Bursch, Nicolas Foglia, Miquel Garcia-Rates, Ingolf Harden, Hagen Neugebauer, Anastasios Papadopoulos, 
  Christoph Riplinger, Bernardo de Souza, Georgi L. Stoychev                                                    
                                                                 
  APM, various basis sets, CI-OPT, improved COSX, DLPNO-Multilevel,           
  DOCKER, DRACO, updates on ESD, Fragmentator, GOAT, IRC, LR-CPCM, L-BFGS, MBIS, meta-GGA TD-DFT gradient, ML-optimized integration grids, 
  MM, NACMEs, nearIR, NEB, NEB-TS, NL-DFT gradient (VV10), 2- and 3-layer-ONIOM, interface openCOSMO-RS, QMMM,   
  Crystal-QMMM, RESP, rigid body optimization, SF, symmetry and pop. for TD-DFT, various functionals, SOLVATOR                                   
                                                                         
[Other institutions]                                                     
  V. Asgeirsson          : NEB                                           
  Christoph Bannwarth    : sTDA-DFT, sTD-DFT, PBEh-3c, B97-3c, D3        
  Giovanni Bistoni       : ETS/NOCV, ADLD/ADEX, COVALED                  
  Martin Brehm           : Molecular dynamics                            
  Ronald Cardenas        : ETS/NOCV                                      
  Martina Colucci        : COVALED                                       
  Sebastian Ehlert       : rSCAN, r2SCAN, r2SCAN-3c, D4, dhf basis sets  
  Marvin Friede          : D4 for Fr, Ra, Ac-Lr                          
  Lars Goerigk           : TD-DFT with DH, B97 family of functionals     
  Stefan Grimme          : VdW corrections, initial TS optimization, DFT functionals, gCP, sTDA/sTD-DF 
  Waldemar Hujo          : DFT-NL                                        
  H. Jonsson             : NEB                                           
  Holger Kruse           : gCP                                           
  Marcel Mueller         : wB97X-3c, vDZP basis set                      
  Hagen Neugebauer       : wr2SCAN, Native XTB                           
  Gianluca Regni         : ADLD/ADEX                                     
  Tobias Risthaus        : pre 6.0 range-separated hybrid DFT and stability analysis
  Lukas Wittmann         : regularized MP2, r2SCAN double-hybrids, wr2SCAN        
                                                                         
We gratefully acknowledge several colleagues who have allowed us to      
interface, adapt or use parts of their codes:                            
  Ed Valeev, F. Pavosevic, A. Kumar             : LibInt (2-el integral package), F12 methods 
  Garnet Chan, S. Sharma, J. Yang, R. Olivares  : DMRG                   
  Ulf Ekstrom                                   : XCFun DFT Library      
  Mihaly Kallay                                 : mrcc  (arbitrary order and MRCC methods)
  Frank Weinhold                                : gennbo (NPA and NBO analysis)           
  Simon Mueller                                 : openCOSMO-RS                            
  Christopher J. Cramer and Donald G. Truhlar   : smd solvation model                     
  S Lehtola, MJT Oliveira, MAL Marques          : LibXC Library                           
  Liviu Ungur et al                             : ANISO software                          


 Your calculation uses the libint2 library for the computation of 2-el integrals
 For citations please refer to: http://libint.valeyev.net

 Your ORCA version has been built with support for libXC version: 7.0.0
 For citations please refer to: https://libxc.gitlab.io

 This ORCA versions uses:
   CBLAS   interface :  Fast vector & matrix operations
   LAPACKE interface :  Fast linear algebra routines
   SCALAPACK package :  Parallel linear algebra routines
   Shared memory     :  Shared parallel matrices
   BLAS/LAPACK       :  OpenBLAS 0.3.29  USE64BITINT DYNAMIC_ARCH NO_AFFINITY SkylakeX SINGLE_THREADED
        Core in use  :  SkylakeX
   Copyright (c) 2011-2014, The OpenBLAS Project


  ***********************************
  * Starting time: Wed Mar 18 21:10:11 2026
  * Host name:     c5-9
  * Process ID:    1511555
  * Working dir.:  /tmp/lscratch/tns97255/orca_43703212
  ***********************************

NOTE: MaxCore=4000 MB was set to SCF,MP2,MDCI,CIPSI,MRCI,RASCI and CIS
      => If you want to overwrite this, your respective input block should be placed after the MaxCore statement


***************************************
The coordinates will be read from file: freq.xyz
***************************************


================================================================================

----- Orbital basis set information -----
Your calculation utilizes the basis: cc-pVDZ-F12 

----- AuxC basis set information -----
Your calculation utilizes the auxiliary basis: cc-pVTZ/C 
  Obtained from the EMSL Basis Set Exchange (bse.pnl.gov) Feb. 2017
  H-He, B-F, Al-Ar, Ga-Kr : F. Weigend, A. Kohn, C. Hattig, J. Chem. Phys. 116, 3175 (2002)
             Li-Be, Na-Mg : C. Haettig, Phys. Chem. Chem. Phys. 7, 59 (2005)
                       Ne : C. Haettig, Phys. Chem. Chem. Phys. 7, 59 (2005)
                            F. Weigend, A. Kohn, C. Hattig, J. Chem. Phys. 116, 3175 (2002)
                    Sc-Zn : J. G. Hill, J. A. Platts, J. Chem. Phys. 128, 044104 (2008)

----- CABS information -----
Your calculation utilizes the basis: cc-pVDZ-F12 


                    <<< The CABS basis set will be decontracted >>>

================================================================================
                                        WARNINGS
                       Please study these warnings very carefully!
================================================================================


WARNING: Post HF methods need fully converged wavefunctions
  ===> : Setting SCFConvForced true
         You can overwrite this default with %scf ConvForced false 


WARNING: MDCI localization with Augmented Hessian Foster-Boys
  ===> : Switching off randomization!

================================================================================
                                       INPUT FILE
================================================================================
NAME = calc.inp
|  1> %PAL NPROCS 8 END
|  2> %MAXCORE 4000
|  3> %base "calc"
|  4> ! CCSD(T)-F12/RI cc-pVDZ-F12 cc-pVDZ-F12-CABS cc-pVTZ/c
|  5> 
|  6> *xyzfile 0 1 freq.xyz
|  7> 
|  8>                          ****END OF INPUT****
================================================================================

                       ****************************
                       * Single Point Calculation *
                       ****************************

---------------------------------
CARTESIAN COORDINATES (ANGSTROEM)
---------------------------------
  C     -0.761470    0.008135   -0.024444
  C      0.761470   -0.008138    0.024444
  H     -1.149185    1.021610    0.076167
  H     -1.130856   -0.394330   -0.967387
  H     -1.189016   -0.590083    0.779840
  H      1.130857    0.394345    0.967381
  H      1.189013    0.590072   -0.779849
  H      1.149188   -1.021614   -0.076152

----------------------------
CARTESIAN COORDINATES (A.U.)
----------------------------
  NO LB      ZA    FRAG     MASS         X           Y           Z
   0 C     6.0000    0    12.011   -1.438969    0.015374   -0.046192
   1 C     6.0000    0    12.011    1.438970   -0.015378    0.046192
   2 H     1.0000    0     1.008   -2.171644    1.930564    0.143934
   3 H     1.0000    0     1.008   -2.137008   -0.745176   -1.828097
   4 H     1.0000    0     1.008   -2.246915   -1.115095    1.473684
   5 H     1.0000    0     1.008    2.137010    0.745204    1.828084
   6 H     1.0000    0     1.008    2.246909    1.115075   -1.473702
   7 H     1.0000    0     1.008    2.171650   -1.930570   -0.143906

--------------------------------
INTERNAL COORDINATES (ANGSTROEM)
--------------------------------
 C      0   0   0     0.000000000000     0.00000000     0.00000000
 C      1   0   0     1.523811206696     0.00000000     0.00000000
 H      1   2   0     1.089760211684   111.25664844     0.00000000
 H      1   2   3     1.089755351358   111.25903822   119.99501537
 H      1   2   3     1.089740028965   111.25829273   240.00184570
 H      2   1   3     1.089756318413   111.25903839    60.00396186
 H      2   1   3     1.089741097810   111.25806597   299.99746723
 H      2   1   3     1.089760480396   111.25680757   179.99916399

---------------------------
INTERNAL COORDINATES (A.U.)
---------------------------
 C      0   0   0     0.000000000000     0.00000000     0.00000000
 C      1   0   0     2.879585860455     0.00000000     0.00000000
 H      1   2   0     2.059348351727   111.25664844     0.00000000
 H      1   2   3     2.059339167042   111.25903822   119.99501537
 H      1   2   3     2.059310211916   111.25829273   240.00184570
 H      2   1   3     2.059340994511   111.25903839    60.00396186
 H      2   1   3     2.059312231739   111.25806597   299.99746723
 H      2   1   3     2.059348859519   111.25680757   179.99916399

---------------------
BASIS SET INFORMATION
---------------------
There are 2 groups of distinct atoms

 Group   1 Type C   : 19s6p2d contracted to 5s5p2d pattern {88111/21111/11}
 Group   2 Type H   : 5s2p contracted to 3s2p pattern {311/11}

Atom   0C    basis set group =>   1
Atom   1C    basis set group =>   1
Atom   2H    basis set group =>   2
Atom   3H    basis set group =>   2
Atom   4H    basis set group =>   2
Atom   5H    basis set group =>   2
Atom   6H    basis set group =>   2
Atom   7H    basis set group =>   2
---------------------------------
AUXILIARY/C BASIS SET INFORMATION
---------------------------------
There are 2 groups of distinct atoms

 Group   1 Type C   : 8s6p5d3f1g contracted to 8s6p5d3f1g pattern {11111111/111111/11111/111/1}
 Group   2 Type H   : 4s3p2d1f contracted to 4s3p2d1f pattern {1111/111/11/1}

Atom   0C    basis set group =>   1
Atom   1C    basis set group =>   1
Atom   2H    basis set group =>   2
Atom   3H    basis set group =>   2
Atom   4H    basis set group =>   2
Atom   5H    basis set group =>   2
Atom   6H    basis set group =>   2
Atom   7H    basis set group =>   2
--------------
CABS BASIS SET
--------------
There are 2 groups of distinct atoms

 Group   1 Type C   : 15s10p6d3f1g contracted to 15s10p6d3f1g pattern {111111111111111/1111111111/111111/111/1}
 Group   2 Type H   : 8s5p2d contracted to 8s5p2d pattern {11111111/11111/11}

Atom   0C    basis set group =>   1
Atom   1C    basis set group =>   1
Atom   2H    basis set group =>   2
Atom   3H    basis set group =>   2
Atom   4H    basis set group =>   2
Atom   5H    basis set group =>   2
Atom   6H    basis set group =>   2
Atom   7H    basis set group =>   2


           ************************************************************
           *        Program running with 8 parallel MPI-processes     *
           *              working on a common directory               *
           ************************************************************
------------------------------------------------------------------------------
                             ORCA STARTUP CALCULATIONS
------------------------------------------------------------------------------
------------------------------------------------------------------------------
                   ___                                                        
                  /   \      - P O W E R E D   B Y -                         
                 /     \                                                     
                 |  |  |   _    _      __       _____    __    __             
                 |  |  |  | |  | |    /  \     |  _  \  |  |  /  |          
                  \  \/   | |  | |   /    \    | | | |  |  | /  /          
                 / \  \   | |__| |  /  /\  \   | |_| |  |  |/  /          
                |  |  |   |  __  | /  /__\  \  |    /   |      \           
                |  |  |   | |  | | |   __   |  |    \   |  |\   \          
                \     /   | |  | | |  |  |  |  | |\  \  |  | \   \       
                 \___/    |_|  |_| |__|  |__|  |_| \__\ |__|  \__/        
                                                                              
                      - O R C A' S   B I G   F R I E N D -                    
                                      &                                       
                       - I N T E G R A L  F E E D E R -                       
                                                                              
 v1 FN, 2020, v2 2021, v3 2022-2024                                           
------------------------------------------------------------------------------


----------------------
SHARK INTEGRAL PACKAGE
----------------------

Number of atoms                             ...      8
Number of basis functions                   ...    126
Number of shells                            ...     66
Maximum angular momentum                    ...      2
Integral batch strategy                     ... SHARK/LIBINT Hybrid
RI-J (if used) integral strategy            ... SPLIT-RIJ (Revised 2003 algorithm where possible)
Printlevel                                  ...      1
Contraction scheme used                     ... PARTIAL GENERAL contraction
Prescreening option                         ... SCHWARTZ
   Thresh                                   ... 1.000e-10
   Tcut                                     ... 1.000e-11
   Tpresel                                  ... 1.000e-11 
Coulomb Range Separation                    ... NOT USED
Exchange Range Separation                   ... NOT USED
Multipole approximations                    ... NOT USED
Finite Nucleus Model                        ... NOT USED
CABS basis                                  ... AVAILABLE
   # of basis functions in CABS             ...    408
   # of shells in CABS                      ...    160
   Maximum angular momentum in CABS         ...      4
F12 Gamma exponent                          ...  0.900000
F12-Geminal                                 ...  6 primitives
l =0 ng=6 ofs=0
   a( 0) =     0.220850853  d( 0)=    -0.314424804 
   a( 1) =     1.004019154  d( 1)=    -0.303695753 
   a( 2) =     3.621217265  d( 2)=    -0.168069685 
   a( 3) =    12.162483048  d( 3)=    -0.098115813 
   a( 4) =    45.855331575  d( 4)=    -0.060246641 
   a( 5) =   254.234600970  d( 5)=    -0.037263542 
Auxiliary Coulomb fitting basis             ... NOT available
Auxiliary J/K fitting basis                 ... NOT available
Auxiliary Correlation fitting basis         ... AVAILABLE
   # of basis functions in Aux-C            ...    342
   # of shells in Aux-C                     ...    106
   Maximum angular momentum in Aux-C        ...      4
Auxiliary 'external' fitting basis          ... NOT available

Checking pre-screening integrals            ... done (  0.0 sec) Dimension = 66
Save PGC pre-screening integrals            ... done (  0.0 sec) Dimension = 66
Calculate PGC overlap integrals             ... done (  0.0 sec) Dimension = 54
Calculating pre-screening integrals (ORCA)  ... done (  0.0 sec) Dimension = 54
Shell pair information
Shell pair cut-off parameter TPreSel        ...   1.0e-11
Total number of shell pairs                 ...      2211
Shell pairs after pre-screening             ...      2157
Total number of primitive shell pairs       ...      3260
Primitive shell pairs kept                  ...      2959
          la=0 lb=0:    776 shell pairs
          la=1 lb=0:    870 shell pairs
          la=1 lb=1:    253 shell pairs
          la=2 lb=0:    160 shell pairs
          la=2 lb=1:     88 shell pairs
          la=2 lb=2:     10 shell pairs

Checking whether 4 symmetric matrices of dimension 126 fit in memory
:Max Core in MB      =   4000.00
 MB in use           =     18.15
 MB left             =   3981.85
 MB needed           =      0.24
 Data fit in memory  = YES
Calculating RI/C V-Matrix + Cholesky decomp.... done (  0.0 sec)
Calculating Nuclear repulsion               ... done (  0.0 sec) ENN=     42.334650014313 Eh

Diagonalization of the overlap matrix:
Smallest eigenvalue                        ... 2.893e-04
Time for diagonalization                   ...    0.002 sec
Threshold for overlap eigenvalues          ... 1.000e-07
Number of eigenvalues below threshold      ... 0
Time for construction of square roots      ...    0.001 sec
Total time needed                          ...    0.004 sec

-------------------
DFT GRID GENERATION
-------------------

General Integration Accuracy     IntAcc      ... 4.388
Radial Grid Type                 RadialGrid  ... OptM3 with GC (2021)
Angular Grid (max. ang.)         AngularGrid ... 4 (Lebedev-302)
Angular grid pruning method      GridPruning ... 4 (adaptive)
Weight generation scheme         WeightScheme... mBecke (2022)
Basis function cutoff            BFCut       ... 1.0000e-10
Integration weight cutoff        WCut        ... 1.0000e-14
Partially contracted basis set               ... off
Rotationally invariant grid construction     ... off
Angular grids for H and He will be reduced by one unit
Diffuse basis detected: some atoms will have their outermost
                        angular grid increased by 1.

Total number of grid points                  ...    32262
Total number of batches                      ...      510
Average number of points per batch           ...       63
Average number of grid points per atom       ...     4033

---------------------
SHARK GRID GENERATION
---------------------

General Integration Accuracy     IntAcc      ... 4.388
Radial Grid Type                 RadialGrid  ... OptM3 with GC (2021)
Angular Grid (max. ang.)         AngularGrid ... 4 (Lebedev-302)
Angular grid pruning method      GridPruning ... 4 (adaptive)
Weight generation scheme         WeightScheme... mBecke (2022)
Basis function cutoff            BFCut       ... 1.0000e-10
Integration weight cutoff        WCut        ... 1.0000e-14
Partially contracted basis set               ... off
Rotationally invariant grid construction     ... off
Angular grids for H and He will be reduced by one unit
Diffuse basis detected: some atoms will have their outermost
                        angular grid increased by 1.
Steep s-basis detected: some atoms will have their radial
                        grid points doubled.

Total number of grid points                  ...    45166
Total number of batches                      ...      710
Average number of points per batch           ...       63
Average number of grid points per atom       ...     5646
Grids setup in   0.4 sec
Initializing property integral containers    ... done (  0.0 sec)

SHARK setup successfully completed in   0.7 seconds

Maximum memory used throughout the entire STARTUP-calculation: 28.2 MB


           ************************************************************
           *        Program running with 8 parallel MPI-processes     *
           *              working on a common directory               *
           ************************************************************
-------------------------------------------------------------------------------
                                 ORCA GUESS
                   Start orbitals & Density for SCF / CASSCF
-------------------------------------------------------------------------------

------------
SCF SETTINGS
------------
Hamiltonian:
 Ab initio Hamiltonian  Method          .... Hartree-Fock(GTOs)


General Settings:
 Integral files         IntName         .... calc
 Hartree-Fock type      HFTyp           .... RHF
 Total Charge           Charge          ....    0
 Multiplicity           Mult            ....    1
 Number of Electrons    NEL             ....   18
 Basis Dimension        Dim             ....  114
 Nuclear Repulsion      ENuc            ....     42.3346500143 Eh

Convergence Acceleration:
 AO-DIIS                CNVDIIS         .... on
   Start iteration      DIISMaxIt       ....    12
   Startup error        DIISStart       ....  0.200000
   # of expansion vecs  DIISMaxEq       ....     5
   Bias factor          DIISBfac        ....   1.050
   Max. coefficient     DIISMaxC        ....  10.000
 MO-DIIS                CNVKDIIS        .... off
 Trust-Rad. Augm. Hess. CNVTRAH         .... auto
   Auto Start mean grad. ratio tolernc. ....  1.125000
   Auto Start start iteration           ....    50
   Auto Start num. interpolation iter.  ....    10
   Max. Number of Micro iterations      ....    24
   Max. Number of Macro iterations      .... Maxiter - #DIIS iter
   Number of Davidson start vectors     ....     2
   Converg. threshold    (grad. norm)   ....   5.000e-05
   Grad. Scal. Fac. for Micro threshold ....   0.100
   Minimum threshold for Micro iter.    ....   1.000e-02
   NR start threshold (gradient norm)   ....   1.000e-04
   Initial trust radius                 ....   0.400
   Minimum AH scaling param. (alpha)    ....   1.000
   Maximum AH scaling param. (alpha)    .... 1000.000
   Quad. conv. algorithm                .... NR
   White noise on init. David. guess    .... on
   Maximum white noise                  ....   0.010
   Pseudo random numbers                .... off
   Inactive MOs                         .... canonical
   Orbital update algorithm             .... Taylor
   Preconditioner                       .... Diag
   Full preconditioner red. dimension   ....   250
 SOSCF                 CNVSOSCF           .... on
   Start iteration     SOSCFMaxIt         ....   150
   Startup grad/error  SOSCFStart         ....  0.003300
   Hessian update      SOSCFHessUp        .... L-BFGS
   Autom. constraints  SOSCFAutoConstrain .... off
 Level Shifting         CNVShift        .... on
   Level shift para.    LevelShift      ....    0.2500
   Turn off err/grad.   ShiftErr        ....    0.0010
 Zerner damping         CNVZerner       .... off
 Static damping         CNVDamp         .... on
   Fraction old density DampFac         ....    0.7000
   Max. Damping (<1)    DampMax         ....    0.9800
   Min. Damping (>=0)   DampMin         ....    0.0000
   Turn off err/grad.   DampErr         ....    0.1000

SCF Procedure:
 Maximum # iterations   MaxIter         ....   125
 SCF integral mode      SCFMode         .... Direct
   Integral package                     .... SHARK and LIBINT hybrid scheme
 Reset frequency        DirectResetFreq ....    20
 Integral Threshold     Thresh          ....  1.000e-10 Eh
 Primitive CutOff       TCut            ....  1.000e-11 Eh

Convergence Tolerance:
 Convergence Check Mode ConvCheckMode   .... Total+1el-Energy
 Convergence forced     ConvForced      .... 1
 Energy Change          TolE            ....  1.000e-06 Eh
 1-El. energy change                    ....  1.000e-03 Eh
 Orbital Gradient       TolG            ....  5.000e-05
 Orbital Rotation angle TolX            ....  5.000e-05
 DIIS Error             TolErr          ....  1.000e-06

------------------------------
INITIAL GUESS: MODEL POTENTIAL
------------------------------
Loading Hartree-Fock densities                     ... done
Calculating cut-offs                               ... done
Initializing the effective Hamiltonian             ... done
Setting up the integral package (SHARK)            ... done
Starting the Coulomb interaction                   ... done (   0.0 sec)
Making the grid                                    ... done (   0.0 sec)
Mapping shells                                     ... done
Starting the XC term evaluation                    ... done (   0.0 sec)
Transforming the Hamiltonian                       ... done (   0.0 sec)
Diagonalizing the Hamiltonian                      ... done (   0.0 sec)
Back transforming the eigenvectors                 ... done (   0.0 sec)
Now organizing SCF variables                       ... done
                      ------------------
                      INITIAL GUESS DONE (   0.1 sec)
                      ------------------
             **** ENERGY FILE WAS UPDATED (calc.en.tmp) ****
Finished Guess after   1.7 sec
Maximum memory used throughout the entire GUESS-calculation: 8.1 MB


           ************************************************************
           *        Program running with 8 parallel MPI-processes     *
           *              working on a common directory               *
           ************************************************************

-------------------------------------------------------------------------------------------
                                      ORCA LEAN-SCF
                              memory conserving SCF solver
-------------------------------------------------------------------------------------------

----------------------------------------D-I-I-S--------------------------------------------
Iteration    Energy (Eh)           Delta-E    RMSDP     MaxDP     DIISErr   Damp  Time(sec)
-------------------------------------------------------------------------------------------
               ***  Starting incremental Fock matrix formation  ***
    1    -79.0851907411685886     0.00e+00  4.23e-03  2.53e-02  2.42e-01  0.700   0.1
    2    -79.1471660276688027    -6.20e-02  3.32e-03  1.91e-02  1.56e-01  0.700   0.1
                               ***Turning on AO-DIIS***
    3    -79.1841051522069819    -3.69e-02  1.93e-03  1.55e-02  9.63e-02  0.700   0.1
    4    -79.2071782941703475    -2.31e-02  4.45e-03  3.69e-02  6.59e-02  0.000   0.1
    5    -79.2574541943122171    -5.03e-02  5.29e-04  3.60e-03  4.62e-03  0.000   0.1
                              *** Initializing SOSCF ***
---------------------------------------S-O-S-C-F--------------------------------------
Iteration    Energy (Eh)           Delta-E    RMSDP     MaxDP     MaxGrad    Time(sec)
--------------------------------------------------------------------------------------
    6    -79.2576128916049782    -1.59e-04  3.45e-04  1.86e-03  2.15e-03     0.1
               *** Restarting incremental Fock matrix formation ***
    7    -79.2576511363331235    -3.82e-05  1.42e-04  5.50e-04  4.91e-04     0.1
    8    -79.2576549699945332    -3.83e-06  7.72e-05  2.94e-04  1.82e-04     0.1
    9    -79.2576555759310395    -6.06e-07  2.58e-06  1.96e-05  7.01e-06     0.1
                 **** Energy Check signals convergence ****

               *****************************************************
               *                     SUCCESS                       *
               *           SCF CONVERGED AFTER   9 CYCLES          *
               *****************************************************

             **** ENERGY FILE WAS UPDATED (calc.en.tmp) ****

----------------
TOTAL SCF ENERGY
----------------

Total Energy       :        -79.25765557513105 Eh           -2156.71045 eV

Components:
Nuclear Repulsion  :         42.33465001431317 Eh            1151.98439 eV
Electronic Energy  :       -121.59230558944422 Eh           -3308.69485 eV
One Electron Energy:       -189.26665894400961 Eh           -5150.20762 eV
Two Electron Energy:         67.67435335456538 Eh            1841.51278 eV

Virial components:
Potential Energy   :       -158.42825353008243 Eh           -4311.05195 eV
Kinetic Energy     :         79.17059795495139 Eh            2154.34149 eV
Virial Ratio       :          2.00109962059689

---------------
SCF CONVERGENCE
---------------

  Last Energy change         ...    6.0594e-07  Tolerance :   1.0000e-06
  Last MAX-Density change    ...    1.9611e-05  Tolerance :   1.0000e-05
  Last RMS-Density change    ...    2.5811e-06  Tolerance :   1.0000e-06
  Last DIIS Error            ...    2.1540e-03  Tolerance :   1.0000e-06
  Last Orbital Gradient      ...    7.0060e-06  Tolerance :   5.0000e-05
  Last Orbital Rotation      ...    7.2745e-06  Tolerance :   5.0000e-05


----------------
ORBITAL ENERGIES
----------------

  NO   OCC          E(Eh)            E(eV) 
   0   2.0000     -11.211004      -305.0669 
   1   2.0000     -11.210391      -305.0503 
   2   2.0000      -1.018499       -27.7148 
   3   2.0000      -0.841713       -22.9042 
   4   2.0000      -0.596942       -16.2436 
   5   2.0000      -0.596920       -16.2430 
   6   2.0000      -0.510563       -13.8931 
   7   2.0000      -0.486484       -13.2379 
   8   2.0000      -0.486459       -13.2372 
   9   0.0000       0.060170         1.6373 
  10   0.0000       0.071518         1.9461 
  11   0.0000       0.087654         2.3852 
  12   0.0000       0.087656         2.3852 
  13   0.0000       0.114788         3.1235 
  14   0.0000       0.114790         3.1236 
  15   0.0000       0.119856         3.2614 
  16   0.0000       0.196401         5.3443 
  17   0.0000       0.240427         6.5424 
  18   0.0000       0.240435         6.5426 
  19   0.0000       0.274801         7.4777 
*Only the first 10 virtual orbitals were printed.

                    ********************************
                    * MULLIKEN POPULATION ANALYSIS *
                    ********************************

-----------------------
MULLIKEN ATOMIC CHARGES
-----------------------
   0 C :   -0.340926
   1 C :   -0.340924
   2 H :    0.113638
   3 H :    0.113640
   4 H :    0.113647
   5 H :    0.113639
   6 H :    0.113647
   7 H :    0.113638
Sum of atomic charges:   -0.0000000

--------------------------------
MULLIKEN REDUCED ORBITAL CHARGES
--------------------------------
  0 C s       :     3.176587  s :     3.176587
      pz      :     1.054263  p :     3.074852
      px      :     0.966245
      py      :     1.054344
      dz2     :     0.015998  d :     0.089487
      dxz     :     0.020856
      dyz     :     0.013981
      dx2y2   :     0.017768
      dxy     :     0.020885

  1 C s       :     3.176586  s :     3.176586
      pz      :     1.054263  p :     3.074851
      px      :     0.966245
      py      :     1.054344
      dz2     :     0.015998  d :     0.089487
      dxz     :     0.020855
      dyz     :     0.013981
      dx2y2   :     0.017767
      dxy     :     0.020885

  2 H s       :     0.859259  s :     0.859259
      pz      :     0.007447  p :     0.027103
      px      :     0.008926
      py      :     0.010729

  3 H s       :     0.859256  s :     0.859256
      pz      :     0.010363  p :     0.027104
      px      :     0.008814
      py      :     0.007926

  4 H s       :     0.859249  s :     0.859249
      pz      :     0.009386  p :     0.027104
      px      :     0.009177
      py      :     0.008541

  5 H s       :     0.859257  s :     0.859257
      pz      :     0.010363  p :     0.027104
      px      :     0.008814
      py      :     0.007926

  6 H s       :     0.859249  s :     0.859249
      pz      :     0.009386  p :     0.027104
      px      :     0.009177
      py      :     0.008541

  7 H s       :     0.859259  s :     0.859259
      pz      :     0.007447  p :     0.027103
      px      :     0.008926
      py      :     0.010730



                     *******************************
                     * LOEWDIN POPULATION ANALYSIS *
                     *******************************

----------------------
LOEWDIN ATOMIC CHARGES
----------------------
   0 C :    0.003147
   1 C :    0.003146
   2 H :   -0.001047
   3 H :   -0.001046
   4 H :   -0.001053
   5 H :   -0.001046
   6 H :   -0.001053
   7 H :   -0.001047

-------------------------------
LOEWDIN REDUCED ORBITAL CHARGES
-------------------------------
  0 C s       :     2.705258  s :     2.705258
      pz      :     1.015585  p :     2.984877
      px      :     0.953651
      py      :     1.015641
      dz2     :     0.049881  d :     0.306718
      dxz     :     0.077050
      dyz     :     0.039982
      dx2y2   :     0.062662
      dxy     :     0.077143

  1 C s       :     2.705258  s :     2.705258
      pz      :     1.015585  p :     2.984877
      px      :     0.953651
      py      :     1.015642
      dz2     :     0.049881  d :     0.306718
      dxz     :     0.077050
      dyz     :     0.039983
      dx2y2   :     0.062662
      dxy     :     0.077143

  2 H s       :     0.811954  s :     0.811954
      pz      :     0.050314  p :     0.189093
      px      :     0.053791
      py      :     0.084989

  3 H s       :     0.811956  s :     0.811956
      pz      :     0.080318  p :     0.189090
      px      :     0.053283
      py      :     0.055489

  4 H s       :     0.811957  s :     0.811957
      pz      :     0.071964  p :     0.189096
      px      :     0.054972
      py      :     0.062160

  5 H s       :     0.811956  s :     0.811956
      pz      :     0.080318  p :     0.189090
      px      :     0.053283
      py      :     0.055490

  6 H s       :     0.811957  s :     0.811957
      pz      :     0.071965  p :     0.189096
      px      :     0.054972
      py      :     0.062159

  7 H s       :     0.811954  s :     0.811954
      pz      :     0.050314  p :     0.189093
      px      :     0.053791
      py      :     0.084989



                      *****************************
                      * MAYER POPULATION ANALYSIS *
                      *****************************

  NA   - Mulliken gross atomic population
  ZA   - Total nuclear charge
  QA   - Mulliken gross atomic charge
  VA   - Mayer's total valence
  BVA  - Mayer's bonded valence
  FA   - Mayer's free valence

  ATOM       NA         ZA         QA         VA         BVA        FA
  0 C      6.3409     6.0000    -0.3409     3.9461     3.9461    -0.0000
  1 C      6.3409     6.0000    -0.3409     3.9461     3.9461     0.0000
  2 H      0.8864     1.0000     0.1136     0.9780     0.9780    -0.0000
  3 H      0.8864     1.0000     0.1136     0.9780     0.9780    -0.0000
  4 H      0.8864     1.0000     0.1136     0.9780     0.9780    -0.0000
  5 H      0.8864     1.0000     0.1136     0.9780     0.9780     0.0000
  6 H      0.8864     1.0000     0.1136     0.9780     0.9780    -0.0000
  7 H      0.8864     1.0000     0.1136     0.9780     0.9780    -0.0000

  Mayer bond orders larger than 0.100000
B(  0-C ,  1-C ) :   0.9874 B(  0-C ,  2-H ) :   0.9849 B(  0-C ,  3-H ) :   0.9849 
B(  0-C ,  4-H ) :   0.9849 B(  1-C ,  5-H ) :   0.9849 B(  1-C ,  6-H ) :   0.9849 
B(  1-C ,  7-H ) :   0.9849 

-------
TIMINGS
-------

Total SCF time: 0 days 0 hours 0 min 3 sec 

Total time                  ....       3.008 sec
Sum of individual times     ....       2.885 sec  ( 95.9%)

SCF preparation             ....       1.597 sec  ( 53.1%)
Fock matrix formation       ....       1.139 sec  ( 37.9%)
  Startup                   ....       0.003 sec  (  0.3% of F)
  Coulomb+Exchange Fock     ....       1.229 sec  (107.9% of F)
Diagonalization             ....       0.000 sec  (  0.0%)
Density matrix formation    ....       0.017 sec  (  0.6%)
Total Energy calculation    ....       0.010 sec  (  0.3%)
Population analysis         ....       0.010 sec  (  0.3%)
Orbital Transformation      ....       0.014 sec  (  0.5%)
Orbital Orthonormalization  ....       0.000 sec  (  0.0%)
DIIS solution               ....       0.067 sec  (  2.2%)
SOSCF solution              ....       0.029 sec  (  1.0%)
Finished LeanSCF after   3.0 sec

Maximum memory used throughout the entire LEANSCF-calculation: 10.1 MB


           ************************************************************
           *        Program running with 8 parallel MPI-processes     *
           *              working on a common directory               *
           ************************************************************

------------------------------------------------------------------------------
                         ORCA PROPERTY INTEGRAL CALCULATIONS
------------------------------------------------------------------------------

GBWName                                   ... calc.gbw
Number of atoms                           ...      8
Number of basis functions                 ...    126
Max core memory                           ...   4000 MB

Dipole integrals                          ... YES
Quadrupole integrals                      ...  NO
Linear momentum integrals                 ... YES
Angular momentum integrals                ... YES
Higher moments length integrals           ...  NO
Higher moments velocity integrals         ...  NO
Kinetic energy integrals                  ...  NO
GIAO right hand sides                     ...  NO
GIAO dipole derivative integrals          ...  NO
SOC integrals                             ...  NO
EPR diamagnetic integrals (GIAO)          ...  NO
EPR gauge integrals                       ...  NO
Field gradient integrals                  ...  NO (   0 nuclei)
Spin-dipole/Fermi contact integrals       ...  NO (   0 nuclei)
Contact density integrals                 ...  NO (   0 nuclei)
Nucleus-orbit integrals                   ...  NO (   0 nuclei)
Geometric perturbations                   ...  NO (   8 nuclei)

Choice of electric origin   ... Center of mass
Position of electric origin ... (  0.0000, -0.0000, -0.0000) 
Choice of magnetic origin   ... GIAO
Position of magnetic origin ... (  0.0000,  0.0000,  0.0000) 

Calculating integrals                     ... Electric Dipole (Length)     done (  0.0 sec)
Calculating integrals                     ... Linear Momentum              done (  0.0 sec)
Calculating integrals                     ... Angular Momentum  (ElOri)    done (  0.0 sec)

Property integrals calculated in   0.0 sec

Maximum memory used throughout the entire PROPINT-calculation: 8.3 MB


           ************************************************************
           *        Program running with 8 parallel MPI-processes     *
           *              working on a common directory               *
           ************************************************************


--------------------------------------------------------------------------------
                             ORCA-MATRIX DRIVEN CI
--------------------------------------------------------------------------------

--------------------------------
AUTOMATIC CHOICE OF INCORE LEVEL
--------------------------------

Memory available                           ...   2000.00 MB
Memory needed for S+T                      ...      7.07 MB
Memory needed for J+K                      ...     14.18 MB
Memory needed for DIIS                     ...     98.92 MB
Memory needed for 3-ext                    ...     61.82 MB
Memory needed for 4-ext                    ...    468.09 MB
Memory needed for triples                  ...     44.16 MB
 -> Final InCoreLevel    ... 5
 -> check shows that triples correction can be computed


Wavefunction type
-----------------
Correlation treatment                      ...      CCSD     
Single excitations                         ... ON
Orbital optimization                       ... OFF
Calculation of Z vector                    ... OFF
Calculation of Brueckner orbitals          ... OFF
Perturbative triple excitations            ... ON
Calculation of F12 correction              ... ON
   Using RI for F12 correction             ... ON
Frozen core treatment                      ... chemical core (4 el)
Reference Wavefunction                     ... RHF
  Internal Orbitals:     2 ...    8 (  7 MO's/ 14 electrons)
  Virtual  Orbitals:     9 ...  113 (105 MO's              )
Number of AO's                             ...    114
Number of electrons                        ...     18
Number of correlated electrons             ...     14

Algorithmic settings
--------------------
Integral transformation                    ... Separate K and J transformations
K(C) Formation                             ... AO-EXCHANGE STORED
Maximum number of iterations               ...        50
Convergence tolerance (max. residuum)      ... 2.500e-05
Level shift for amplitude update           ... 2.000e-01
Maximum number of DIIS vectors             ...         7
DIIS turned on at iteration                ...         0
Damping before turning on DIIS             ...     0.500
Damping after turning on DIIS              ...     0.000
Pair specific amplitude update             ... OFF
Natural orbital iterations                 ... OFF
Perturbative natural orbital generation    ... OFF
Printlevel                                 ... 2

Memory handling:
----------------
Maximum memory for working arrays          ...   2000 MB
Data storage in matrix containers          ... UNCOMPRESSED
Data type for integral storage             ... DOUBLE
In-Core Storage of quantities:
   Amplitudes+Sigma Vector      ... YES
   J+K operators                ... YES
   DIIS vectors                 ... YES
   3-external integrals         ... YES
   4-external integrals         ... YES


Initializing the integral package          ... done
Warning: reference  - re-canonicalizations have been set to INT 1 VIRT 1
Fock densities were made 
Making Fock matrix and reference energy:

--------------------------
CLOSED-SHELL FOCK OPERATOR
--------------------------

Recanonicalizing the internal orbitals
Recanonicalizing the virtual orbitals
Storing new orbitals
Time needed for Fock operator              ...            0.229 sec
Reference energy                           ...    -79.257655575

-------------------------
SHARK HALF TRANSFORMATION
-------------------------

Number of basis functions                ...    114
Number of operators                      ...      1
   Operator  0:    2-   8

Integral generator used                  ... SHARK
Contraction scheme used                  ... SEGMENTED CONTRACTION
MaxCore in resort                        ...   4000 MB

Half transformed integrals for op=   0   ... calc.SHARK_MNPQ0.tmp
Resorted half transformed integrals      ... calc._PQMN_0.tmp
Starting integral generation + half trafo... 
Half trafo (segmented) done. Total time =  0.4 sec. integrals=  0.3 sec trafo=  0.0 sec
Starting integral resorting              ... done (  0.0 sec)

SHARK half integral transformation done. Total time =  0.4 sec.

----------------------------------
J-TRAFO SECOND HALF TRANSFORMATION
----------------------------------

Generate (ij|kl)                        ... NO
Generate (ij|ka)                        ... YES
Generate (ij|ab)                        ... YES
Generate (ia|bc)                        ... NO
Generate (ab|cd)                        ... NO
Generate (pq|rs)                        ... NO

Number of operators                     ... 1
   Operator 0                           ...    2-   8 to    9- 113
   PQMN-Container name                  ... calc._PQMN_0.tmp
   IJKA-Container name    op=0,0        ... calc._IJKA_0.tmp
   IJAB-Container name    op=0,0        ... calc._IJAB_0.tmp

Starting integral transformations       ... done
Completed Coulomb integral formation in   0.0 sec


-------------------------
SHARK HALF TRANSFORMATION (Exchange order)
-------------------------

Number of basis functions                   ...    114
Number of operators                         ...      1
   Operator  0:    2-   8 (p-index in (p*|q*))
   Operator  0:    2- 113 (q-index in (p*|q*)
Integral generator used                     ... SHARK
Contraction scheme used                     ... SEGMENTED CONTRACTION
MaxCore in resort                           ...   4000 MB

Half transformed integrals for op=   0      ... calc.SHARK_MNPQ0.tmp
Resorted half transformed integrals         ... calc._PMQN_0.tmp

Half trafo (segmented) done. Total time =  1.0 sec. integrals=  0.5 sec trafo=  0.2 sec

----------------------
SHARK INTEGRAL SORTING (Exchange)
----------------------

Input container                             ... calc.SHARK_MNPQ0.tmp
Output container                            ... calc._PMQN_0.tmp
Range of AO-indices                         ...    0 -  113
Range of bra indices i                      ...    2 -    8
Range of ket indices j                      ...    2 -  113
Symmetric i,j range                         ... NO
Number of (i,j) pairs generated             ...  784
Max Core memory in MB                       ...   4000

Available core memory in MB                 ...   3956.54
MB needed for one item                      ...      0.10
Fixed MB needed                             ...      0.00
Number of items                             ...        98
Number of batches                           ...         1
Items treated per batch                     ...        98
Batch   0                                   ...      0-    97 (    98)
   => Closing output file and leaving
done (  0.1 sec)

SHARK half integral transformation done. Total time =  1.2 sec.

----------------------------------
K-TRAFO SECOND HALF TRANSFORMATION
----------------------------------

Generate (ik|jl)                        ... YES
Generate (ik|ja)                        ... YES
Generate (ia|jb)                        ... YES
Generate (ib|ac)                        ... YES
Generate (ac|bd)                        ... NO
Generate (pr|qs)                        ... NO

Number of operators                     ... 1
   Operator 0                           ...    2-   8 to    9- 113

Starting integral transformations       ... done
Completed Exchange integral formation in   0.0 sec


------------------------------
Initializing F12 data (SHARK)
------------------------------

Mapping basis set                  ... done
Dimension of the orbital basis set  = 114
Dimension of the CABS basis set     = 408
Dimension of the AUX basis set      = 342
Threshold for CABS orthogonalization = 1.000e-08
Test shows that OBS-bases are identical for ORCA and SHARK (good)
Test shows that CABS-bases are identical for ORCA and SHARK (good)
Will use an exponential correlation factor -Exp(-gamma r12)/gamma (gamma= 0.900) fit to 6 Gaussians 
Correlation factor:   
  NGauss  :          6      
  Gaussian expansion: 
    a( 0)=    0.1948458954898069  d( 0)=   -0.3837757042467722 
    a( 1)=    0.9387038354476187  d( 1)=   -0.3334018173527373 
    a( 2)=    3.4610351718196344  d( 2)=   -0.1753946778698117 
    a( 3)=   11.7049811259564009  d( 3)=   -0.1006409547412648 
    a( 4)=   44.2276114110074730  d( 4)=   -0.0614475918190023 
    a( 5)=  245.3721697105246733  d( 5)=   -0.0379425511812079 
Calculating one-electron matrices                       ... (SHARK)done (      0.1 sec)
Calculating pre-screening matrices:                     ... 
     (LIBINT-0)       .... 1/r12 done          (      0.1 sec)
     (LIBINT-1)       .... f12/r12 done        (      0.1 sec)
     (LIBINT-2)       .... f12 done            (      0.1 sec)
     (LIBINT-3)       .... f12^2 done          (      0.1 sec)
     (LIBINT-4)       .... [f12,[T1,f12]] done (      0.1 sec)
                                                        ... done (      0.3 sec)
Making CABS spaces                                      ... done (      0.0 sec)
Calculating 2-index 2-center F12 integrals              ... 
Two index explicit correlation integrals  op=0          ...(SHARK-0) done (      0.0 sec)  Metric   done (      0.0 sec)
Two index explicit correlation integrals  op=1          ...(SHARK-1) done (      0.0 sec)  Metric   done (      0.0 sec)
Two index explicit correlation integrals  op=2          ...(SHARK-2) done (      0.0 sec)  Metric   done (      0.0 sec)
Two index explicit correlation integrals  op=3          ...(SHARK-3) done (      0.0 sec)  Metric   done (      0.0 sec)
Two index explicit correlation integrals  op=4          ...(SHARK-4) done (      0.0 sec)  Metric   done (      0.0 sec)
                                                                     done (      0.0 sec)

------------------
CLOSED SHELL GUESS
------------------

Initial guess performed in     0.006 sec
E(0)                                       ...    -79.257655575
E(MP2)                                     ...     -0.341958710
Initial E(tot)                             ...    -79.599614285
<T|T>                                      ...      0.109926788
Number of pairs included                   ... 28
Total number of pairs                      ... 28

------------------------------------------------
                  RHF COUPLED CLUSTER ITERATIONS
------------------------------------------------

Number of amplitudes to be optimized       ... 309435

Iter       E(tot)           E(Corr)          Delta-E          Residual     Time
  0    -79.599614285     -0.341958710      0.000000000      0.021395209    0.39
                           *** Turning on DIIS ***
  1    -79.620333438     -0.362677863     -0.020719153      0.003413364    0.79
  2    -79.630022227     -0.372366652     -0.009688789      0.000933265    0.81
  3    -79.631965237     -0.374309662     -0.001943010      0.000289446    0.81
  4    -79.632219164     -0.374563589     -0.000253927      0.000083648    0.79
  5    -79.632248694     -0.374593119     -0.000029530      0.000033220    0.79
  6    -79.632251749     -0.374596174     -0.000003055      0.000012130    0.77
               --- The Coupled-Cluster iterations have converged ---
--------------------
CC F12/RI CORRECTION
--------------------

Doing density matrix                                    ... done (      0.0 sec)
Calculating Coulomb operators
       .... OBS/OBS done        (      0.1 sec, SHARK-SC)
       .... CABS/OBS done       (      1.4 sec, LIBINT  )
       .... CABS/CABS done      (      1.9 sec, LIBINT  )
Calculating Exchange operators
       .... OBS/OBS done        (      0.5 sec, LIBINT  )
       .... CABS/OBS done       (      2.7 sec, LIBINT  )
       .... CABS/CABS done      (      3.7 sec, LIBINT  )
       .... exchange build done (      7.0 sec)
Completing Fock operators                               ... done (      0.0 sec)
Three index transformation (OBS,OBS/AUX) for  op=0      ... (LIBINT) done (      0.0 sec)
Three index transformation (OBS,CABS/AUX) for op=0      ... (LIBINT) done (      0.1 sec)
Three index transformation (OBS,OBS/AUX) for  op=1      ... (LIBINT) done (      0.1 sec)
Three index transformation (OBS,CABS/AUX) for op=1      ... (LIBINT) done (      0.2 sec)
Three index transformation (OBS,OBS/AUX) for  op=2      ... (LIBINT) done (      0.0 sec)
Three index transformation (OBS,CABS/AUX) for op=2      ... (LIBINT) done (      0.1 sec)
Three index transformation (OBS,OBS/AUX) for  op=3      ... (LIBINT) done (      0.1 sec)
Three index transformation (OBS,CABS/AUX) for op=3      ... (LIBINT) done (      0.2 sec)
Three index transformation (OBS,OBS/AUX) for  op=4      ... (LIBINT) done (      0.1 sec)
Three index transformation (OBS,CABS/AUX) for op=4      ... (LIBINT) done (      0.2 sec)
Three index transformation (OBS_F,OBS/AUX) for  op=2    ... (LIBINT) done (      0.0 sec)
Three index transformation (OBS_F,CABS/AUX) for op=2    ... (LIBINT) done (      0.1 sec)
Recalculating the K(C) operators (Opt=   AOX)           ... done (      0.6 sec)
Calculating F12 intermediates (incore)                  ... done (      0.2 sec)
     Startup integrals           ...     0.024 sec
     OBS/OBS integrals           ...     0.011 sec
     CABS/OBS integrals          ...     0.040 sec
     CABS/CABS integrals         ...     0.014 sec
     Vij intermediate            ...     0.001 sec
     Xij intermediate            ...     0.001 sec
     Bij intermediate            ...     0.100 sec
     BS-tilde ij intermediate    ...     0.000 sec
     Vbar-ij intermediate        ...     0.005 sec
     Hartree-Fock correction     ...     0.006 sec
Calculating correlation correction                      ... done (    0.000 sec)

F12 correction                   :  -0.043447768529
Hartree-Fock correction          :  -0.004103386859
Sum of the two                   :  -0.047551155388
Total time for F12 correction    :    12.596 sec
  .... cleaning up and leaving CC-F12/RI

----------------------
COUPLED CLUSTER ENERGY
----------------------

Uncorrected 0th order energy               ...    -79.257655575
F12-HF basis set correction                ...     -0.004103387
Corrected 0th order energy                 ...    -79.261758962

Uncorrected correlation energy             ...     -0.374596174
F12-correction to the correlation energy   ...     -0.043447769
Final F12 correlation energy               ...     -0.418043942

E(TOT)-before F12 corrections              ...    -79.632251749
E(TOT)-after HF correction                 ...    -79.636355135
E(TOT)-after all F12 corrections           ...    -79.679802904

Singles Norm <S|S>**1/2                    ...      0.029164155  
T1 diagnostic                              ...      0.007794448  

------------------
LARGEST AMPLITUDES
------------------
   6-> 33   6-> 33       0.029493
   6-> 33   6-> 22       0.017820
   6-> 22   6-> 33       0.017820
   8-> 34   8-> 34       0.016064
   7-> 35   7-> 35       0.016063
   6-> 24   6-> 24       0.014799
   5-> 34   5-> 34       0.014703
   4-> 35   4-> 35       0.014702
   5-> 29   5-> 29       0.014141
   4-> 30   4-> 30       0.014138
   6-> 22   6-> 22       0.013256
   8-> 19   8-> 19       0.013109
   7-> 20   7-> 20       0.013106
   8-> 29   8-> 29       0.012895
   7-> 30   7-> 30       0.012893
   6-> 23   6-> 33       0.012883


        !!!!!!!!!!!!!!!!!!!!!!!!!!!!!!!!!!!!!!!!!!!!!!!!!!!!!!!!!!!!!!!!!!!!!!!!!! 
        !  Warning: Densities are linearized densities !                         !
        !!!!!!!!!!!!!!!!!!!!!!!!!!!!!!!!!!!!!!!!!!!!!!!!!!!!!!!!!!!!!!!!!!!!!!!!!! 

Trace of internal density part =     -0.277668607
Trace of external density part =      0.277668607
----------------------
RHF TRIPLES CORRECTION (Algorithm 1)
----------------------

Multiplier for the singles contribution    ...      1.000000000
Fock matrix occ-virt block is zero --> Setting DT_in_Triples to false.

10% done
20% done
30% done
40% done
50% done
60% done
70% done
80% done

Triples Correction (T)                     ...     -0.012154365
Scaling of triples based on CCSD energies (Peterson et al. Molecular Physics 113, 1551 (2015))
E(T*) = f*E(T) where f = E(F12-CCSD)/E(CCSD) 
f = CCSD (with F12)/ CCSD (without F12)    ...      1.115985618
Scaled triples correction (T)              ...     -0.013564096

Final correlation energy (without F12)     ...     -0.386750538
Final correlation energy (with F12)        ...     -0.430198307
Final correlation energy (CCSD scaled (T)) ...     -0.431608038
F12-E(CCSD)                                ...    -79.679802904
F12-E(CCSD(T))                             ...    -79.691957268
F12-ECCSD(T) with (T) scaled through CCSD  ...    -79.693367000

NORM  =      1.139684851 sqrt=     1.067560233
W(HF) =      0.877435546
------------------------------------------------------------------------------
                           ORCA POPULATION ANALYSIS
------------------------------------------------------------------------------
Input electron density              ... calc.mdcip
BaseName (.gbw .S,...)              ... calc

                    ********************************
                    * MULLIKEN POPULATION ANALYSIS *
                    ********************************

-----------------------
MULLIKEN ATOMIC CHARGES
-----------------------
   0 C :   -0.424838
   1 C :   -0.424836
   2 H :    0.141610
   3 H :    0.141610
   4 H :    0.141617
   5 H :    0.141610
   6 H :    0.141617
   7 H :    0.141610
Sum of atomic charges:   -0.0000000

--------------------------------
MULLIKEN REDUCED ORBITAL CHARGES
--------------------------------
  0 C s       :     3.223118  s :     3.223118
      pz      :     1.068186  p :     3.097955
      px      :     0.961484
      py      :     1.068285
      dz2     :     0.018114  d :     0.103765
      dxz     :     0.024998
      dyz     :     0.017064
      dx2y2   :     0.018558
      dxy     :     0.025032
  1 C s       :     3.223117  s :     3.223117
      pz      :     1.068185  p :     3.097954
      px      :     0.961484
      py      :     1.068285
      dz2     :     0.018114  d :     0.103765
      dxz     :     0.024998
      dyz     :     0.017064
      dx2y2   :     0.018558
      dxy     :     0.025032
  2 H s       :     0.829975  s :     0.829975
      pz      :     0.009993  p :     0.028415
      px      :     0.010380
      py      :     0.008041
  3 H s       :     0.829975  s :     0.829975
      pz      :     0.008373  p :     0.028415
      px      :     0.010349
      py      :     0.009693
  4 H s       :     0.829967  s :     0.829967
      pz      :     0.008672  p :     0.028415
      px      :     0.010442
      py      :     0.009301
  5 H s       :     0.829975  s :     0.829975
      pz      :     0.008373  p :     0.028415
      px      :     0.010349
      py      :     0.009693
  6 H s       :     0.829968  s :     0.829968
      pz      :     0.008672  p :     0.028415
      px      :     0.010442
      py      :     0.009301
  7 H s       :     0.829976  s :     0.829976
      pz      :     0.009993  p :     0.028415
      px      :     0.010380
      py      :     0.008041


                     *******************************
                     * LOEWDIN POPULATION ANALYSIS *
                     *******************************

----------------------
LOEWDIN ATOMIC CHARGES
----------------------
   0 C :   -0.013221
   1 C :   -0.013221
   2 H :    0.004409
   3 H :    0.004409
   4 H :    0.004402
   5 H :    0.004410
   6 H :    0.004403
   7 H :    0.004409

-------------------------------
LOEWDIN REDUCED ORBITAL CHARGES
-------------------------------
  0 C s       :     2.708303  s :     2.708303
      pz      :     1.017549  p :     2.983225
      px      :     0.948061
      py      :     1.017614
      dz2     :     0.052252  d :     0.321693
      dxz     :     0.080982
      dyz     :     0.042812
      dx2y2   :     0.064571
      dxy     :     0.081077
  1 C s       :     2.708303  s :     2.708303
      pz      :     1.017549  p :     2.983225
      px      :     0.948061
      py      :     1.017614
      dz2     :     0.052251  d :     0.321693
      dxz     :     0.080982
      dyz     :     0.042812
      dx2y2   :     0.064571
      dxy     :     0.081077
  2 H s       :     0.796602  s :     0.796602
      pz      :     0.053561  p :     0.198990
      px      :     0.057291
      py      :     0.088138
  3 H s       :     0.796604  s :     0.796604
      pz      :     0.083487  p :     0.198986
      px      :     0.056779
      py      :     0.058721
  4 H s       :     0.796606  s :     0.796606
      pz      :     0.075141  p :     0.198992
      px      :     0.058480
      py      :     0.065371
  5 H s       :     0.796604  s :     0.796604
      pz      :     0.083486  p :     0.198986
      px      :     0.056779
      py      :     0.058721
  6 H s       :     0.796606  s :     0.796606
      pz      :     0.075142  p :     0.198992
      px      :     0.058480
      py      :     0.065370
  7 H s       :     0.796602  s :     0.796602
      pz      :     0.053561  p :     0.198989
      px      :     0.057291
      py      :     0.088138


                      *****************************
                      * MAYER POPULATION ANALYSIS *
                      *****************************

  NA   - Mulliken gross atomic population
  ZA   - Total nuclear charge
  QA   - Mulliken gross atomic charge
  VA   - Mayer's total valence
  BVA  - Mayer's bonded valence
  FA   - Mayer's free valence

  ATOM       NA         ZA         QA         VA         BVA        FA
  0 C      6.4248     6.0000    -0.4248     4.0119     3.6709     0.3410
  1 C      6.4248     6.0000    -0.4248     4.0119     3.6709     0.3410
  2 H      0.8584     1.0000     0.1416     0.9781     0.9104     0.0677
  3 H      0.8584     1.0000     0.1416     0.9781     0.9104     0.0677
  4 H      0.8584     1.0000     0.1416     0.9781     0.9104     0.0677
  5 H      0.8584     1.0000     0.1416     0.9781     0.9104     0.0677
  6 H      0.8584     1.0000     0.1416     0.9781     0.9104     0.0677
  7 H      0.8584     1.0000     0.1416     0.9781     0.9104     0.0677

  Mayer bond orders larger than 0.100000
B(  0-C ,  1-C ) :   0.9185 B(  0-C ,  2-H ) :   0.9186 B(  0-C ,  3-H ) :   0.9186 
B(  0-C ,  4-H ) :   0.9186 B(  1-C ,  5-H ) :   0.9186 B(  1-C ,  6-H ) :   0.9186 
B(  1-C ,  7-H ) :   0.9186 



--------------------------------------------------------------------------------
                                    TIMINGS
--------------------------------------------------------------------------------


Total execution time                   ...       22.277 sec

Fock Matrix Formation                  ...        0.229 sec (  1.0%)
Initial Guess                          ...        0.006 sec (  0.0%)
DIIS Solver                            ...        0.134 sec (  0.6%)
State Vector Update                    ...        0.006 sec (  0.0%)
Sigma-vector construction              ...        5.010 sec ( 22.5%)
  <0|H|D>                              ...        0.003 sec (  0.1% of sigma)
  <D|H|D>(0-ext)                       ...        0.027 sec (  0.5% of sigma)
  <D|H|D>(2-ext Fock)                  ...        0.005 sec (  0.1% of sigma)
  <D|H|D>(2-ext)                       ...        0.120 sec (  2.4% of sigma)
  <D|H|D>(4-ext + corr)                ...        4.444 sec ( 88.7% of sigma)
  <S|H|0>                              ...        0.007 sec (  0.1% of sigma)
  <S|H|S>                              ...        0.007 sec (  0.1% of sigma)
  <S|H|D>(1-ext)                       ...        0.010 sec (  0.2% of sigma)
  <D|H|S>(1-ext)                       ...        0.029 sec (  0.6% of sigma)
  Fock-dressing                        ...        0.016 sec (  0.3% of sigma)
  (ik|jl)-dressing                     ...        0.038 sec (  0.8% of sigma)
  (ij|ab),(ia|jb)-dressing             ...        0.222 sec (  4.4% of sigma)
  Pair energies                        ...        0.005 sec (  0.1% of sigma)
Total Time for computing F12           ...       12.597 sec ( 56.5% of ALL)
Total Time for computing (T)           ...        1.078 sec (  4.8% of ALL)
  I/O of integral and amplitudes       ...        0.189 sec ( 17.5% of (T))
  N**6 sorting step                    ...        0.245 sec ( 22.7% of (T))
  External N**7 contributions          ...        0.461 sec ( 42.8% of (T))
  Internal N**7 contributions          ...        0.090 sec (  8.4% of (T))
  N**6 triples energy contributions    ...        0.093 sec (  8.6% of (T))
One-particle density matrix            ...        0.003 sec (  0.0%)


Maximum memory used throughout the entire MDCI-calculation: 590.3 MB

-------------------------   --------------------
FINAL SINGLE POINT ENERGY       -79.691957268497
-------------------------   --------------------



           ************************************************************
           *        Program running with 8 parallel MPI-processes     *
           *              working on a common directory               *
           ************************************************************

------------------------------------------------------------------------------
                              ORCA PROPERTY CALCULATIONS
------------------------------------------------------------------------------

GBWName                                 ... calc.gbw
Number of atoms                         ...      8
Number of basis functions               ...    126
Max core memory                         ...   4000 MB

Electric properties:
Dipole moment                           ... YES
Quadrupole moment                       ...  NO
Static polarizability (Dipole/Dipole)   ...  NO
Static polarizability (Dipole/Quad.)    ...  NO
Static polarizability (Quad./Quad.)     ...  NO
Static polarizability (Velocity)        ...  NO
Static hyperpolarizability              ...  NO

Atomic electric properties:
Dipole moment                           ...  NO
Quadrupole moment                       ...  NO
Static polarizability                   ...  NO

Choice of electric origin               ... Center of mass
Position of electric origin             ...     0.000000    -0.000002    -0.000000

General magnetic properties:
Magnetizability                         ...  NO

EPR properties:
g-Tensor (aka g-matrix)                 ...  NO
Zero-Field splitting spin-orbit         ...  NO
Zero-field splitting spin-spin          ...  NO
Hyperfine couplings                     ...  NO (   0 nuclei)
Quadrupole couplings                    ...  NO (   0 nuclei)
Contact density                         ...  NO (   0 nuclei)

NMR properties:
Chemical shifts                         ...  NO (   0 nuclei)
Spin-rotation constants                 ...  NO (   0 nuclei)
Spin-spin couplings                     ...  NO (   0 nuclei,    0 pairs)

Choice of magnetic origin               ... GIAO
Position of magnetic origin             ...     0.000000     0.000000     0.000000

Properties with geometric perturbations:
SCF Hessian                             ...  NO
IR spectrum                             ...  NO
VCD spectrum                            ...  NO
X-ray spectroscopy properties:
SCF XES/XAS/RIXS spectra                ...  NO

SCF SOC stabilization energy            ...  NO
Diagonal Born-Oppenheimer correction    ...  NO

-------------
DIPOLE MOMENT
-------------

Method             : SCF
Type of density    : Electron Density
Multiplicity       :   1
Irrep              :   0
Energy             :   -79.2576555751310536 Eh
Basis              : AO
                                X                 Y                 Z
Electronic contribution:     -0.000000312      -0.000005575       0.000000674
Nuclear contribution   :     -0.000000185       0.000005908      -0.000000680
                        -----------------------------------------
Total Dipole Moment    :     -0.000000497       0.000000333      -0.000000006
                        -----------------------------------------
Magnitude (a.u.)       :      0.000000598
Magnitude (Debye)      :      0.000001521



--------------------
Rotational spectrum 
--------------------
 
Rotational constants in cm-1:             2.702322             0.670015             0.670007 
Rotational constants in MHz :         81013.576142         20086.554526         20086.290972 

Dipole components along the rotational axes: 
x,y,z [a.u.] :    -0.000001    -0.000000     0.000000 
x,y,z [Debye]:    -0.000001    -0.000000     0.000001 

 

-------------
DIPOLE MOMENT
-------------

Method             : MDCI(SD)
Type of density    : Electron Density
Multiplicity       :   1
Level              : Linearized density
Irrep              :   0
Energy             :     0.0000000000000000 Eh
Basis              : AO
                                X                 Y                 Z
Electronic contribution:     -0.000000246      -0.000005454       0.000000673
Nuclear contribution   :     -0.000000185       0.000005908      -0.000000680
                        -----------------------------------------
Total Dipole Moment    :     -0.000000431       0.000000455      -0.000000008
                        -----------------------------------------
Magnitude (a.u.)       :      0.000000627
Magnitude (Debye)      :      0.000001593



--------------------
Rotational spectrum 
--------------------
 
Rotational constants in cm-1:             2.702322             0.670015             0.670007 
Rotational constants in MHz :         81013.576142         20086.554526         20086.290972 

Dipole components along the rotational axes: 
x,y,z [a.u.] :    -0.000000    -0.000000     0.000000 
x,y,z [Debye]:    -0.000001    -0.000000     0.000001 

 

Dipole moment calculation done in   0.0 sec 

Maximum memory used throughout the entire PROP-calculation: 8.4 MB

--------------------------------
SUGGESTED CITATIONS FOR THIS RUN
--------------------------------

Below you find a list of papers that are relevant to this ORCA run
We neither can nor want to force you to cite these papers, but we appreciate if you do
You receive ORCA, which is the product of decades of hard work by many enthusiastic individuals, for free
The only thing we kindly ask in return is that you cite our papers,
We deeply appreciate it, if you show your appreciation for ORCA by not just citing the generic ORCA reference.

Please note that relegating all ORCA citations to the supporting information does *not* help us.
SI sections are not indexed - citations you put there will not count into any citation statistics
But we need these citations in order to attract the funding resources that allow us to do what we are doing

Therefore, if you are a happy ORCA user, please consider citing a few of the papers listed below in the main body of your paper

In addition to the list printed below, the program has created the file calc.bibtex that contains the list in bibtex format
You can import this file easily into all common literature databanks and citation aid programs

It goes without saying that in many instances, there are alternative algorithms to achieve similar
results as the ones you have gotten from ORCA. It is, of course, also the case that in some instances
ORCA just re-implements algorithms worked out by others. We are fully aware of that and we are also
fully appreciative of our colleagues work. Hence this citation list should not be read as indicating
that the listed papers, which are focused on our own work, are the only ones worth citing. It simply
meant to make it easier for users to cite ORCA specific papers. It is not a substitute for doing your
own literature research and citing the relevant literature in a scientifically appropriate manner.

List of essential papers. We consider these as the minimum necessary citations

  1. Neese, F.
     Software update: the ORCA program system, version 6.0
     WIRES Comput. Molec. Sci. 2025 15(1), e70019
     doi.org/10.1002/wcms.70019

List of papers to cite with high priority. The work reported in these papers was absolutely
necessary for this run to complete.
Our perspective: the developers of density functionals and basis sets usually get cited in chemistry papers
Good! But without the algorithms to do something with them, the functionals or basis sets would not do anything.
Hence, in our opinion, the algorithm design and method developments papers are equally worthy of getting cited

  1. Pavosevic, F.; Neese, F.; Valeev, E.F.
     Geminal-spanning orbitals make explicitly correlated reduced-scaling coupled-cluster methods robust, yet simple
     J. Chem. Phys. 2014 141 , 
     doi.org/10.1063/1.4890002
  2. Neese, F.
     The SHARK Integral Generation and Digestion System
     J. Comp. Chem. 2022 44(3), 381
     doi.org/10.1002/jcc.26942

List of suggested additional citations. These are papers that are important in the 'surrounding' of 
of this run, or papers that preceded the highly important papers. If you like your results we are grateful for a citation.

  1. Neese, F.
     The ORCA program system
     WIRES Comput. Molec. Sci. 2012 2(1), 73-78
     doi.org/10.1002/wcms.81
  2. Neese, F.
     Software update: the ORCA program system, version 4.0
     WIRES Comput. Molec. Sci. 2018 8(1), 1-6
     doi.org/10.1002/wcms.1327
  3. Neese, F.; Wennmohs, F.; Becker, U.; Riplinger, C.
     The ORCA quantum chemistry program package
     J. Chem. Phys. 2020 152(22), 224108
     doi.org/10.1063/5.0004608
  4. Neese, F.
     Software update: The ORCA program system—Version 5.0
     WIRES Comput. Molec. Sci. 2022 12(1), e1606
     doi.org/10.1002/wcms.1606

List of optional additional citations

  1. Neese, F.
     Approximate second-order SCF convergence for spin unrestricted wavefunctions
     Chem. Phys. Lett. 2000 325(1-3), 93-98
     doi.org/10.1016/s0009-2614(00)00662-x

Timings for individual modules:

Sum of individual times          ...       35.975 sec (=   0.600 min)
Startup calculation              ...        2.524 sec (=   0.042 min)   7.0 %
SCF iterations                   ...        5.276 sec (=   0.088 min)  14.7 %
Property integrals               ...        1.931 sec (=   0.032 min)   5.4 %
Property calculations            ...        1.990 sec (=   0.033 min)   5.5 %
MDCI module                      ...       24.255 sec (=   0.404 min)  67.4 %
                             ****ORCA TERMINATED NORMALLY****
TOTAL RUN TIME: 0 days 0 hours 0 minutes 37 seconds 859 msec
