
                                 *****************
                                 * O   R   C   A *
                                 *****************

                                            #,                                       
                                            ###                                      
                                            ####                                     
                                            #####                                    
                                            ######                                   
                                           ########,                                 
                                     ,,################,,,,,                         
                               ,,#################################,,                 
                          ,,##########################################,,             
                       ,#########################################, ''#####,          
                    ,#############################################,,   '####,        
                  ,##################################################,,,,####,       
                ,###########''''           ''''###############################       
              ,#####''   ,,,,##########,,,,          '''####'''          '####       
            ,##' ,,,,###########################,,,                        '##       
           ' ,,###''''                  '''############,,,                           
         ,,##''                                '''############,,,,        ,,,,,,###''
      ,#''                                            '''#######################'''  
     '                                                          ''''####''''         
             ,#######,   #######,   ,#######,      ##                                
            ,#'     '#,  ##    ##  ,#'     '#,    #''#        ,####,    ,#,          
            ##       ##  ##   ,#'  ##            #'  '#       #'       ,# #          
            ##       ##  #######   ##           ,######,      #####,      #          
            '#,     ,#'  ##    ##  '#,     ,#' ,#      #,     #,   #      #          
             '#######'   ##     ##  '#######'  #'      '#     '####' #    #          



                #########################################################
                #                        -***-                          #
                #          Department of theory and spectroscopy        #
                #                                                       #
                #                      Frank Neese                      #
                #                                                       #
                #     Directorship, Architecture, Infrastructure        #
                #                    SHARK, DRIVERS                     #
                #        Core code/Algorithms in most modules           #
                #                                                       #
                #        Max Planck Institute fuer Kohlenforschung      #
                #                Kaiser Wilhelm Platz 1                 #
                #                 D-45470 Muelheim/Ruhr                 #
                #                      Germany                          #
                #                                                       #
                #                  All rights reserved                  #
                #                        -***-                          #
                #########################################################


                         Program Version 6.1.1  -  RELEASE   -
                                (GIT: $487d211c$)
                          ($2025-11-21 10:33:24 +0100$)


 With contributions from (in alphabetic order):
[Max-Planck-Institut fuer Kohlenforschung]                               
  Daniel Aravena         : Magnetic Suceptibility                        
  Michael Atanasov       : Ab Initio Ligand Field Theory (pilot matlab implementation)
  Alexander A. Auer      : GIAO ZORA, VPT2 properties, NMR spectrum      
  Ute Becker             : All parallelization in ORCA, NUMFREQ, NUMCALC 
  Giovanni Bistoni       : ED, misc. LED, open-shell LED, HFLD           
  Dmytro Bykov           : pre 5.0 version of the SCF Hessian            
  Marcos Casanova-Páez   : Triplet and SCS-CIS(D). UHF-(DLPNO)-IP/EA/STEOM-CCSD. UHF-CVS-IP/STEOM-CCSD   
  Vijay G. Chilkuri      : MRCI spin determinant printing, contributions to CSF-ICE 
  Pauline Colinet        : FMM embedding                                 
  Dipayan Datta          : RHF DLPNO-CCSD density                        
  Achintya Kumar Dutta   : EOM-CC, STEOM-CC                              
  Nicolas Foglia         : Exact transition moments, OPA infrastructure, MCD improvements    
  Dmitry Ganyushin       : Spin-Orbit,Spin-Spin,Magnetic field MRCI      
  Miquel Garcia-Rates    : C-PCM and meta-GGA Hessian, CCSD/C-PCM, Gaussian charge scheme 
  Tiago L. C. Gouveia    : GS-ROHF, GS-ROCIS                             
  Yang Guo               : DLPNO-NEVPT2, F12-NEVPT2, CIM, IAO-localization        
  Andreas Hansen         : Spin unrestricted coupled pair/coupled cluster methods 
  Ingolf Harden          : AUTO-CI MPn and infrastructure                
  Benjamin Helmich-Paris : MC-RPA, TRAH-(SCF,CASSCF), AVAS, COSX integrals, SCF dyn. polar., MC-PDFT, srDFT 
  Lee Huntington         : MR-EOM, pCC                                   
  Robert Izsak           : Overlap fitted RIJCOSX, COSX-SCS-MP3, EOM     
  Riya Kayal             : Wick's Theorem for AUTO-CI, AUTO-CI UHF-CCSDT 
  Emily Kempfer          : AUTO-CI RHF CISDT and CCSDT, approximate NEVPT4
  Christian Kollmar      : KDIIS, OOCD, Brueckner-CCSD(T), CCSD density, CASPT2, CASPT2-K, improved NEVPT2 
  Axel Koslowski         : Symmetry handling                             
  Simone Kossmann        : meta-GGA functionals, TD-DFT gradient, OOMP2, (MP2 Hessian; deprecated post 5.0) 
  Lucas Lang             : DCDCAS, Hyperfine gauge corrections, ICE-SOC+SSC
  Marvin Lechner         : AUTO-CI (C++ implementation), FIC-MRCC        
  Spencer Leger          : CASSCF response                               
  Dagmar Lenk            : GEPOL surface, SMD, ORCA-2-JSON               
  Dimitrios Liakos       : Extrapolation schemes; Compound Job, Property file
  Dimitrios Manganas     : Further ROCIS development; embedding schemes. LFT, Crystal Embedding 
  Dimitrios Pantazis     : SARC Basis sets                               
  Anastasios Papadopoulos: AUTO-CI, single reference methods and gradients 
  Taras Petrenko         : pre 6.0 DFT Hessian and TD-DFT gradient,  ECA, NRVS 
  Petra Pikulova         : Analytic Raman intensities                    
  Peter Pinski           : DLPNO-MP2, DLPNO-MP2 Gradient                 
  Shashank Vittal Rao    : ES-AILFT, MagRelax                            
  Christoph Reimann      : Effective Core Potentials                     
  Marius Retegan         : Local ZFS, SOC                                
  Christoph Riplinger    : Optimizer, TS searches, QM/MM, DLPNO-CCSD(T), (RO)-DLPNO pert. Triples 
  Michael Roemelt        : Original ROCIS implementation, recursive CI coupling coefficients
  Masaaki Saitow         : Open-shell DLPNO-CCSD energy and density      
  Barbara Sandhoefer     : DKH picture change effects                    
  Yorick L. A. Schmerwitz: GMF and freeze-and-release deltaSCF, NEB S-IDPP initial path                    
  Kantharuban Sivalingam : CASSCF convergence/infrastructure, NEVPT2, NEVPT3, NEVPT4(SD), FIC-MRCI and CEPA variants
  Bernardo de Souza      : ESD, SOC TD-DFT                               
  Georgi L. Stoychev     : AutoAux, RI-MP2 NMR, DLPNO-MP2 response, X2C  
  Van Anh Tran           : RI-MP2 g-tensors                              
  Willem Van den Heuvel  : Paramagnetic NMR                              
  Zikuan Wang            : NOTCH, Electric field optimization            
  Frank Wennmohs         : Technical directorship and infrastructure     
  Hang Xu                : AUTO-CI-Response properties                   
                                                                         
[FACCTs GmbH]                                                            
  Markus Bursch, Nicolas Foglia, Miquel Garcia-Rates, Ingolf Harden, Hagen Neugebauer, Anastasios Papadopoulos, 
  Christoph Riplinger, Bernardo de Souza, Georgi L. Stoychev                                                    
                                                                 
  APM, various basis sets, CI-OPT, improved COSX, DLPNO-Multilevel,           
  DOCKER, DRACO, updates on ESD, Fragmentator, GOAT, IRC, LR-CPCM, L-BFGS, MBIS, meta-GGA TD-DFT gradient, ML-optimized integration grids, 
  MM, NACMEs, nearIR, NEB, NEB-TS, NL-DFT gradient (VV10), 2- and 3-layer-ONIOM, interface openCOSMO-RS, QMMM,   
  Crystal-QMMM, RESP, rigid body optimization, SF, symmetry and pop. for TD-DFT, various functionals, SOLVATOR                                   
                                                                         
[Other institutions]                                                     
  V. Asgeirsson          : NEB                                           
  Christoph Bannwarth    : sTDA-DFT, sTD-DFT, PBEh-3c, B97-3c, D3        
  Giovanni Bistoni       : ETS/NOCV, ADLD/ADEX, COVALED                  
  Martin Brehm           : Molecular dynamics                            
  Ronald Cardenas        : ETS/NOCV                                      
  Martina Colucci        : COVALED                                       
  Sebastian Ehlert       : rSCAN, r2SCAN, r2SCAN-3c, D4, dhf basis sets  
  Marvin Friede          : D4 for Fr, Ra, Ac-Lr                          
  Lars Goerigk           : TD-DFT with DH, B97 family of functionals     
  Stefan Grimme          : VdW corrections, initial TS optimization, DFT functionals, gCP, sTDA/sTD-DF 
  Waldemar Hujo          : DFT-NL                                        
  H. Jonsson             : NEB                                           
  Holger Kruse           : gCP                                           
  Marcel Mueller         : wB97X-3c, vDZP basis set                      
  Hagen Neugebauer       : wr2SCAN, Native XTB                           
  Gianluca Regni         : ADLD/ADEX                                     
  Tobias Risthaus        : pre 6.0 range-separated hybrid DFT and stability analysis
  Lukas Wittmann         : regularized MP2, r2SCAN double-hybrids, wr2SCAN        
                                                                         
We gratefully acknowledge several colleagues who have allowed us to      
interface, adapt or use parts of their codes:                            
  Ed Valeev, F. Pavosevic, A. Kumar             : LibInt (2-el integral package), F12 methods 
  Garnet Chan, S. Sharma, J. Yang, R. Olivares  : DMRG                   
  Ulf Ekstrom                                   : XCFun DFT Library      
  Mihaly Kallay                                 : mrcc  (arbitrary order and MRCC methods)
  Frank Weinhold                                : gennbo (NPA and NBO analysis)           
  Simon Mueller                                 : openCOSMO-RS                            
  Christopher J. Cramer and Donald G. Truhlar   : smd solvation model                     
  S Lehtola, MJT Oliveira, MAL Marques          : LibXC Library                           
  Liviu Ungur et al                             : ANISO software                          


 Your calculation uses the libint2 library for the computation of 2-el integrals
 For citations please refer to: http://libint.valeyev.net

 Your ORCA version has been built with support for libXC version: 7.0.0
 For citations please refer to: https://libxc.gitlab.io

 This ORCA versions uses:
   CBLAS   interface :  Fast vector & matrix operations
   LAPACKE interface :  Fast linear algebra routines
   SCALAPACK package :  Parallel linear algebra routines
   Shared memory     :  Shared parallel matrices
   BLAS/LAPACK       :  OpenBLAS 0.3.29  USE64BITINT DYNAMIC_ARCH NO_AFFINITY SkylakeX SINGLE_THREADED
        Core in use  :  SkylakeX
   Copyright (c) 2011-2014, The OpenBLAS Project


  ***********************************
  * Starting time: Wed Mar 18 21:03:20 2026
  * Host name:     c5-9
  * Process ID:    1504758
  * Working dir.:  /tmp/lscratch/tns97255/orca_43703212
  ***********************************

NOTE: MaxCore=4000 MB was set to SCF,MP2,MDCI,CIPSI,MRCI,RASCI and CIS
      => If you want to overwrite this, your respective input block should be placed after the MaxCore statement


***************************************
The coordinates will be read from file: opt.xyz
***************************************


XCFun DFT library Copyright 2009-2010 Ulf Ekstrom and contributors.
See http://admol.org/xcfun for more information.
This is free software; see the source code for copying conditions.
There is ABSOLUTELY NO WARRANTY; not even for MERCHANTABILITY or FITNESS FOR A PARTICULAR PURPOSE.
For details see the documentation.
Scientific users of this library should cite U. Ekstrom, L. Visscher, R. Bast, A. J. Thorvaldsen and K. Ruud;
J.Chem.Theor.Comp. 2010, DOI: 10.1021/ct100117s
XCFun Version 0.99 

Warning: RI is on but no J-basis has been assigned. Assigning Def2/J (nothing to worry about!)
================================================================================

----- Orbital basis set information -----
Your calculation utilizes the basis: def2-TZVPP
   F. Weigend and R. Ahlrichs, Phys. Chem. Chem. Phys. 7, 3297 (2005).

----- AuxJ basis set information -----
Your calculation utilizes the auxiliary basis: def2/J
   H-Rn: F. Weigend, Phys. Chem. Chem. Phys. 8, 1057 (2006).
   Fr-Lr: K. Eichkorn, F. Weigend, O. Treutler, R. Ahlrichs; Theor. Chem. Acc. 97, 119 (1997).

----- AuxC basis set information -----
Your calculation utilizes the auxiliary basis: def2-TZVPP/C
  H-La, Hf-Rn : A. Hellweg, C. Hattig, S. Hofener and W. Klopper, Theor. Chem. Acc. 117, 587 (2007).
        Ce-Lu : J. Chmela and M. E. Harding, Mol. Phys. (2018).

================================================================================
                                        WARNINGS
                       Please study these warnings very carefully!
================================================================================

WARNING: Functional chosen is sensitive to the integration grid.
         DEFGRID3 seems to be a minimum grid for robust results!

WARNING: The environment variable RSH_COMMAND is not set!
  ===> : All Displacements for the Numerical Hessian or Gradient calculation
         will be started on localhost

WARNING: Geometry Optimization
  ===> : Switching off AutoStart
         For restart on a previous wavefunction, please use MOREAD

================================================================================
                                       INPUT FILE
================================================================================
NAME = freq.inp
|  1> %PAL NPROCS 8 END
|  2> %MAXCORE 4000
|  3> %base "freq"
|  4> ! M062X def2-TZVPP def2-TZVPP/c DEFGRID3 TightSCF SlowConv Opt NumFreq
|  5> 
|  6> %geom
|  7>  MaxIter 500
|  8> end
|  9> 
| 10> *xyzfile 0 1 opt.xyz
| 11> 
| 12>                          ****END OF INPUT****
================================================================================

                       *****************************
                       * Geometry Optimization Run *
                       *****************************

Geometry optimization settings:
Update method            Update   .... BFGS
Choice of coordinates    CoordSys .... (2022) Redundant Internals
Initial Hessian          InHess   .... Almloef's Model
Max. no of cycles        MaxIter  .... 500

Convergence Tolerances:
Energy Change            TolE     ....  5.0000e-06 Eh
Max. Gradient            TolMAXG  ....  3.0000e-04 Eh/bohr
RMS Gradient             TolRMSG  ....  1.0000e-04 Eh/bohr
Max. Displacement        TolMAXD  ....  4.0000e-03 bohr
RMS Displacement         TolRMSD  ....  2.0000e-03 bohr
Strict Convergence                .... False

------------------------------------------------------------------------------
                        ORCA OPTIMIZATION COORDINATE SETUP
------------------------------------------------------------------------------

The optimization will be done in redundant internal coordinates (2022)
Making redundant internal coordinates   ...  (2022 redundants) done
Evaluating the initial hessian          ...  (Almloef) done
Evaluating the coordinates              ...  done
Calculating the B-matrix                .... done
Calculating the G-matrix                .... done
The number of degrees of freedom        ....   25

    -----------------------------------------------------------------
                    Redundant Internal Coordinates


    -----------------------------------------------------------------
         Definition                    Initial Value    Approx d2E/dq
    -----------------------------------------------------------------
      1. B(C   1,C   0)                  1.5158         0.393527   
      2. B(H   2,C   0)                  1.0896         0.360589   
      3. B(H   3,C   0)                  1.0896         0.360584   
      4. B(H   4,C   0)                  1.0896         0.360582   
      5. B(H   5,C   1)                  1.0896         0.360584   
      6. B(H   6,C   1)                  1.0896         0.360582   
      7. B(H   7,C   1)                  1.0896         0.360590   
      8. A(H   2,C   0,H   4)          107.5332         0.290963   
      9. A(C   1,C   0,H   4)          111.3472         0.327179   
     10. A(C   1,C   0,H   2)          111.3462         0.327180   
     11. A(H   3,C   0,H   4)          107.5323         0.290962   
     12. A(H   2,C   0,H   3)          107.5347         0.290963   
     13. A(C   1,C   0,H   3)          111.3439         0.327179   
     14. A(C   0,C   1,H   5)          111.3439         0.327179   
     15. A(H   6,C   1,H   7)          107.5331         0.290963   
     16. A(H   5,C   1,H   7)          107.5347         0.290963   
     17. A(C   0,C   1,H   7)          111.3462         0.327180   
     18. A(H   5,C   1,H   6)          107.5322         0.290962   
     19. A(C   0,C   1,H   6)          111.3472         0.327179   
     20. D(H   5,C   1,C   0,H   3)    179.9984         0.012302   
     21. D(H   5,C   1,C   0,H   4)    -60.0033         0.012302   
     22. D(H   6,C   1,C   0,H   2)    -60.0005         0.012302   
     23. D(H   6,C   1,C   0,H   3)     60.0002         0.012302   
     24. D(H   6,C   1,C   0,H   4)    179.9985         0.012302   
     25. D(H   5,C   1,C   0,H   2)     59.9977         0.012302   
    -----------------------------------------------------------------

Number of atoms                         .... 8
Number of degrees of freedom            .... 25


         *************************************************************
         *                GEOMETRY OPTIMIZATION CYCLE   1            *
         *************************************************************
---------------------------------
CARTESIAN COORDINATES (ANGSTROEM)
---------------------------------
  C     -0.757485    0.008121   -0.024306
  C      0.757485   -0.008121    0.024306
  H     -1.146707    1.020889    0.076202
  H     -1.128376   -0.394106   -0.966621
  H     -1.186555   -0.589704    0.779318
  H      1.128376    0.394131    0.966609
  H      1.186556    0.589681   -0.779334
  H      1.146707   -1.020892   -0.076175

----------------------------
CARTESIAN COORDINATES (A.U.)
----------------------------
  NO LB      ZA    FRAG     MASS         X           Y           Z
   0 C     6.0000    0    12.011   -1.431439    0.015346   -0.045932
   1 C     6.0000    0    12.011    1.431439   -0.015347    0.045931
   2 H     1.0000    0     1.008   -2.166962    1.929200    0.144000
   3 H     1.0000    0     1.008   -2.132321   -0.744753   -1.826649
   4 H     1.0000    0     1.008   -2.242264   -1.114379    1.472697
   5 H     1.0000    0     1.008    2.132323    0.744799    1.826627
   6 H     1.0000    0     1.008    2.242266    1.114336   -1.472727
   7 H     1.0000    0     1.008    2.166962   -1.929205   -0.143949

--------------------------------
INTERNAL COORDINATES (ANGSTROEM)
--------------------------------
 C      0   0   0     0.000000000000     0.00000000     0.00000000
 C      1   0   0     1.515836516478     0.00000000     0.00000000
 H      1   2   0     1.089630732570   111.34617566     0.00000000
 H      1   2   3     1.089634667674   111.34386607   120.00069213
 H      1   2   3     1.089635684086   111.34718862   239.99900304
 H      2   1   3     1.089634637530   111.34388478    59.99774353
 H      2   1   3     1.089635805198   111.34724843   299.99948709
 H      2   1   3     1.089630072806   111.34623986   179.99844789

---------------------------
INTERNAL COORDINATES (A.U.)
---------------------------
 C      0   0   0     0.000000000000     0.00000000     0.00000000
 C      1   0   0     2.864515879941     0.00000000     0.00000000
 H      1   2   0     2.059103671661   111.34617566     0.00000000
 H      1   2   3     2.059111107930   111.34386607   120.00069213
 H      1   2   3     2.059113028670   111.34718862   239.99900304
 H      2   1   3     2.059111050966   111.34388478    59.99774353
 H      2   1   3     2.059113257539   111.34724843   299.99948709
 H      2   1   3     2.059102424888   111.34623986   179.99844789

---------------------
BASIS SET INFORMATION
---------------------
There are 2 groups of distinct atoms

 Group   1 Type C   : 11s6p2d1f contracted to 5s3p2d1f pattern {62111/411/11/1}
 Group   2 Type H   : 5s2p1d contracted to 3s2p1d pattern {311/11/1}

Atom   0C    basis set group =>   1
Atom   1C    basis set group =>   1
Atom   2H    basis set group =>   2
Atom   3H    basis set group =>   2
Atom   4H    basis set group =>   2
Atom   5H    basis set group =>   2
Atom   6H    basis set group =>   2
Atom   7H    basis set group =>   2
---------------------------------
AUXILIARY/J BASIS SET INFORMATION
---------------------------------
There are 2 groups of distinct atoms

 Group   1 Type C   : 12s5p4d2f1g contracted to 6s4p3d1f1g pattern {711111/2111/211/2/1}
 Group   2 Type H   : 5s2p1d contracted to 3s1p1d pattern {311/2/1}

Atom   0C    basis set group =>   1
Atom   1C    basis set group =>   1
Atom   2H    basis set group =>   2
Atom   3H    basis set group =>   2
Atom   4H    basis set group =>   2
Atom   5H    basis set group =>   2
Atom   6H    basis set group =>   2
Atom   7H    basis set group =>   2
---------------------------------
AUXILIARY/C BASIS SET INFORMATION
---------------------------------
There are 2 groups of distinct atoms

 Group   1 Type C   : 8s6p5d3f1g contracted to 8s6p4d3f1g pattern {11111111/111111/2111/111/1}
 Group   2 Type H   : 4s3p2d1f contracted to 4s3p2d1f pattern {1111/111/11/1}

Atom   0C    basis set group =>   1
Atom   1C    basis set group =>   1
Atom   2H    basis set group =>   2
Atom   3H    basis set group =>   2
Atom   4H    basis set group =>   2
Atom   5H    basis set group =>   2
Atom   6H    basis set group =>   2
Atom   7H    basis set group =>   2


           ************************************************************
           *        Program running with 8 parallel MPI-processes     *
           *              working on a common directory               *
           ************************************************************
------------------------------------------------------------------------------
                             ORCA STARTUP CALCULATIONS
                           -- RI-GTO INTEGRALS CHOSEN --
------------------------------------------------------------------------------
------------------------------------------------------------------------------
                   ___                                                        
                  /   \      - P O W E R E D   B Y -                         
                 /     \                                                     
                 |  |  |   _    _      __       _____    __    __             
                 |  |  |  | |  | |    /  \     |  _  \  |  |  /  |          
                  \  \/   | |  | |   /    \    | | | |  |  | /  /          
                 / \  \   | |__| |  /  /\  \   | |_| |  |  |/  /          
                |  |  |   |  __  | /  /__\  \  |    /   |      \           
                |  |  |   | |  | | |   __   |  |    \   |  |\   \          
                \     /   | |  | | |  |  |  |  | |\  \  |  | \   \       
                 \___/    |_|  |_| |__|  |__|  |_| \__\ |__|  \__/        
                                                                              
                      - O R C A' S   B I G   F R I E N D -                    
                                      &                                       
                       - I N T E G R A L  F E E D E R -                       
                                                                              
 v1 FN, 2020, v2 2021, v3 2022-2024                                           
------------------------------------------------------------------------------


----------------------
SHARK INTEGRAL PACKAGE
----------------------

Number of atoms                             ...      8
Number of basis functions                   ...    146
Number of shells                            ...     58
Maximum angular momentum                    ...      3
Integral batch strategy                     ... SHARK/LIBINT Hybrid
RI-J (if used) integral strategy            ... SPLIT-RIJ (Revised 2003 algorithm where possible)
Printlevel                                  ...      1
Contraction scheme used                     ... SEGMENTED contraction
Prescreening option                         ... SCHWARTZ
   Thresh                                   ... 2.500e-11
   Tcut                                     ... 2.500e-12
   Tpresel                                  ... 2.500e-12 
Coulomb Range Separation                    ... NOT USED
Exchange Range Separation                   ... NOT USED
Multipole approximations                    ... NOT USED
Finite Nucleus Model                        ... NOT USED
CABS basis                                  ... NOT available
Auxiliary Coulomb fitting basis             ... AVAILABLE
   # of basis functions in Aux-J            ...    164
   # of shells in Aux-J                     ...     60
   Maximum angular momentum in Aux-J        ...      4
Auxiliary J/K fitting basis                 ... NOT available
Auxiliary Correlation fitting basis         ... AVAILABLE
   # of basis functions in Aux-C            ...    332
   # of shells in Aux-C                     ...    104
   Maximum angular momentum in Aux-C        ...      4
Auxiliary 'external' fitting basis          ... NOT available

Checking pre-screening integrals            ... done (  0.0 sec) Dimension = 58
   => SHARK Basis and OBASIS are compatible. Storing Pre-screening
Shell pair information
Shell pair cut-off parameter TPreSel        ...   2.5e-12
Total number of shell pairs                 ...      1711
Shell pairs after pre-screening             ...      1710
Total number of primitive shell pairs       ...      3978
Primitive shell pairs kept                  ...      3624
          la=0 lb=0:    405 shell pairs
          la=1 lb=0:    504 shell pairs
          la=1 lb=1:    171 shell pairs
          la=2 lb=0:    280 shell pairs
          la=2 lb=1:    180 shell pairs
          la=2 lb=2:     55 shell pairs
          la=3 lb=0:     56 shell pairs
          la=3 lb=1:     36 shell pairs
          la=3 lb=2:     20 shell pairs
          la=3 lb=3:      3 shell pairs

Checking whether 4 symmetric matrices of dimension 146 fit in memory
:Max Core in MB      =   4000.00
 MB in use           =      5.37
 MB left             =   3994.63
 MB needed           =      0.33
 Data fit in memory  = YES
Calculating RI/J V-Matrix + Cholesky decomp.... done (  0.0 sec)
Calculating RI/C V-Matrix + Cholesky decomp.... done (  0.0 sec)
Calculating Nuclear repulsion               ... done (  0.0 sec) ENN=     42.431285462746 Eh

Diagonalization of the overlap matrix:
Smallest eigenvalue                        ... 3.937e-04
Time for diagonalization                   ...    0.003 sec
Threshold for overlap eigenvalues          ... 1.000e-07
Number of eigenvalues below threshold      ... 0
Time for construction of square roots      ...    0.002 sec
Total time needed                          ...    0.006 sec

-------------------
DFT GRID GENERATION
-------------------

General Integration Accuracy     IntAcc      ... 4.959
Radial Grid Type                 RadialGrid  ... OptM3 with GC (2021)
Angular Grid (max. ang.)         AngularGrid ... 6 (Lebedev-590)
Angular grid pruning method      GridPruning ... 4 (adaptive)
Weight generation scheme         WeightScheme... mBecke (2022)
Basis function cutoff            BFCut       ... 1.0000e-11
Integration weight cutoff        WCut        ... 1.0000e-14
Partially contracted basis set               ... off
Rotationally invariant grid construction     ... off
Angular grids for H and He will be reduced by one unit

Total number of grid points                  ...    82230
Total number of batches                      ...     1290
Average number of points per batch           ...       63
Average number of grid points per atom       ...    10279

--------------------
COSX GRID GENERATION
--------------------

GRIDX 1
-------
General Integration Accuracy     IntAcc      ... 4.020
Radial Grid Type                 RadialGrid  ... OptM3 with GC (2021)
Angular Grid (max. ang.)         AngularGrid ... 2 (Lebedev-110)
Angular grid pruning method      GridPruning ... 4 (adaptive)
Weight generation scheme         WeightScheme... mBecke (2022)
Basis function cutoff            BFCut       ... 1.0000e-11
Integration weight cutoff        WCut        ... 1.0000e-14
Partially contracted basis set               ... on
Rotationally invariant grid construction     ... off
Angular grids for H and He will be reduced by one unit

Total number of grid points                  ...     8394
Total number of batches                      ...       70
Average number of points per batch           ...      119
Average number of grid points per atom       ...     1049
UseSFitting                                  ... on

GRIDX 2
-------
General Integration Accuracy     IntAcc      ... 4.338
Radial Grid Type                 RadialGrid  ... OptM3 with GC (2021)
Angular Grid (max. ang.)         AngularGrid ... 3 (Lebedev-194)
Angular grid pruning method      GridPruning ... 4 (adaptive)
Weight generation scheme         WeightScheme... mBecke (2022)
Basis function cutoff            BFCut       ... 1.0000e-11
Integration weight cutoff        WCut        ... 1.0000e-14
Partially contracted basis set               ... on
Rotationally invariant grid construction     ... off
Angular grids for H and He will be reduced by one unit

Total number of grid points                  ...    18446
Total number of batches                      ...      146
Average number of points per batch           ...      126
Average number of grid points per atom       ...     2306
UseSFitting                                  ... on

GRIDX 3
-------
General Integration Accuracy     IntAcc      ... 4.871
Radial Grid Type                 RadialGrid  ... OptM3 with GC (2021)
Angular Grid (max. ang.)         AngularGrid ... 4 (Lebedev-302)
Angular grid pruning method      GridPruning ... 4 (adaptive)
Weight generation scheme         WeightScheme... mBecke (2022)
Basis function cutoff            BFCut       ... 1.0000e-11
Integration weight cutoff        WCut        ... 1.0000e-14
Partially contracted basis set               ... on
Rotationally invariant grid construction     ... off
Angular grids for H and He will be reduced by one unit

Total number of grid points                  ...    38014
Total number of batches                      ...      300
Average number of points per batch           ...      126
Average number of grid points per atom       ...     4752
UseSFitting                                  ... on
Grids setup in   0.9 sec
Initializing property integral containers    ... done (  0.0 sec)

SHARK setup successfully completed in   1.0 seconds

Maximum memory used throughout the entire STARTUP-calculation: 20.3 MB


           ************************************************************
           *        Program running with 8 parallel MPI-processes     *
           *              working on a common directory               *
           ************************************************************
-------------------------------------------------------------------------------
                                 ORCA GUESS
                   Start orbitals & Density for SCF / CASSCF
-------------------------------------------------------------------------------

------------
SCF SETTINGS
------------
Hamiltonian:
 Density Functional     Method          .... DFT(GTOs)
 Exchange Functional    Exchange        .... M062X
 Correlation Functional Correlation     .... M062X
 Gradients option       PostSCFGGA      .... off
 Hybrid DFT is turned on
   Fraction HF Exchange ScalHFX         ....  0.540000
   Scaling of DF-GGA-X  ScalDFX         ....  0.460000
   Scaling of DF-GGA-C  ScalDFC         ....  1.000000
   Scaling of DF-LDA-C  ScalLDAC        ....  1.000000
   Perturbative correction              ....  0.000000
 RI-approximation to the Coulomb term is turned on
   Number of AuxJ basis functions       .... 164
   RIJ-COSX (HFX calculated with COS-X)).... on


General Settings:
 Integral files         IntName         .... freq
 Hartree-Fock type      HFTyp           .... RHF
 Total Charge           Charge          ....    0
 Multiplicity           Mult            ....    1
 Number of Electrons    NEL             ....   18
 Basis Dimension        Dim             ....  146
 Nuclear Repulsion      ENuc            ....     42.4312854627 Eh

Convergence Acceleration:
 AO-DIIS                CNVDIIS         .... on
   Start iteration      DIISMaxIt       ....     0
   Startup error        DIISStart       ....  0.200000
   # of expansion vecs  DIISMaxEq       ....     5
   Bias factor          DIISBfac        ....   1.050
   Max. coefficient     DIISMaxC        ....  10.000
 MO-DIIS                CNVKDIIS        .... off
 Trust-Rad. Augm. Hess. CNVTRAH         .... auto
   Auto Start mean grad. ratio tolernc. ....  1.125000
   Auto Start start iteration           ....    50
   Auto Start num. interpolation iter.  ....    10
   Max. Number of Micro iterations      ....    24
   Max. Number of Macro iterations      .... Maxiter - #DIIS iter
   Number of Davidson start vectors     ....     2
   Converg. threshold    (grad. norm)   ....   1.000e-05
   Grad. Scal. Fac. for Micro threshold ....   0.100
   Minimum threshold for Micro iter.    ....   1.000e-02
   NR start threshold (gradient norm)   ....   1.000e-04
   Initial trust radius                 ....   0.400
   Minimum AH scaling param. (alpha)    ....   1.000
   Maximum AH scaling param. (alpha)    .... 1000.000
   Quad. conv. algorithm                .... NR
   White noise on init. David. guess    .... on
   Maximum white noise                  ....   0.010
   Pseudo random numbers                .... off
   Inactive MOs                         .... canonical
   Orbital update algorithm             .... Taylor
   Preconditioner                       .... Diag
   Full preconditioner red. dimension   ....   250
 SOSCF                 CNVSOSCF           .... on
   Start iteration     SOSCFMaxIt         ....   150
   Startup grad/error  SOSCFStart         ....  0.001000
   Hessian update      SOSCFHessUp        .... L-BFGS
   Autom. constraints  SOSCFAutoConstrain .... off
 Level Shifting         CNVShift        .... on
   Level shift para.    LevelShift      ....    0.2500
   Turn off err/grad.   ShiftErr        ....    0.0000
 Zerner damping         CNVZerner       .... off
 Static damping         CNVDamp         .... on
   Fraction old density DampFac         ....    0.8500
   Max. Damping (<1)    DampMax         ....    0.9800
   Min. Damping (>=0)   DampMin         ....    0.0000
   Turn off err/grad.   DampErr         ....    0.0300

SCF Procedure:
 Maximum # iterations   MaxIter         ....   125
 SCF integral mode      SCFMode         .... Direct
   Integral package                     .... SHARK and LIBINT hybrid scheme
 Reset frequency        DirectResetFreq ....    20
 Integral Threshold     Thresh          ....  2.500e-11 Eh
 Primitive CutOff       TCut            ....  2.500e-12 Eh

Convergence Tolerance:
 Convergence Check Mode ConvCheckMode   .... Total+1el-Energy
 Convergence forced     ConvForced      .... 0
 Energy Change          TolE            ....  1.000e-08 Eh
 1-El. energy change                    ....  1.000e-05 Eh
 Orbital Gradient       TolG            ....  1.000e-05
 Orbital Rotation angle TolX            ....  1.000e-05
 DIIS Error             TolErr          ....  5.000e-07

------------------------------
INITIAL GUESS: MODEL POTENTIAL
------------------------------
Loading Hartree-Fock densities                     ... done
Calculating cut-offs                               ... done
Initializing the effective Hamiltonian             ... done
Setting up the integral package (SHARK)            ... done
Starting the Coulomb interaction                   ... done (   0.0 sec)
Making the grid                                    ... done (   0.0 sec)
Mapping shells                                     ... done
Starting the XC term evaluation                    ... done (   0.0 sec)
  promolecular density results
     # of electrons  =     17.996495791
     EX              =    -11.980182674
     EC              =     -0.555645583
     EX+EC           =    -12.535828257
Transforming the Hamiltonian                       ... done (   0.0 sec)
Diagonalizing the Hamiltonian                      ... done (   0.0 sec)
Back transforming the eigenvectors                 ... done (   0.0 sec)
Now organizing SCF variables                       ... done
                      ------------------
                      INITIAL GUESS DONE (   0.1 sec)
                      ------------------
             **** ENERGY FILE WAS UPDATED (freq.en.tmp) ****
Finished Guess after   1.7 sec
Maximum memory used throughout the entire GUESS-calculation: 9.4 MB


           ************************************************************
           *        Program running with 8 parallel MPI-processes     *
           *              working on a common directory               *
           ************************************************************

-------------------------------------------------------------------------------------------
                                      ORCA LEAN-SCF
                              memory conserving SCF solver
-------------------------------------------------------------------------------------------

----------------------------------------D-I-I-S--------------------------------------------
Iteration    Energy (Eh)           Delta-E    RMSDP     MaxDP     DIISErr   Damp  Time(sec)
-------------------------------------------------------------------------------------------
               ***  Starting incremental Fock matrix formation  ***
    1    -79.6866582347307144     0.00e+00  1.78e-03  1.63e-02  1.98e-01  0.850   0.7
    2    -79.7152572868918696    -2.86e-02  1.78e-03  1.46e-02  1.55e-01  0.850   0.5
                               ***Turning on AO-DIIS***
    3    -79.7356344778855544    -2.04e-02  1.13e-03  8.17e-03  1.14e-01  0.850   0.5
    4    -79.7495352143846219    -1.39e-02  8.37e-04  5.77e-03  9.16e-02  0.850   0.5
    5    -79.7598212457197917    -1.03e-02  6.70e-04  4.54e-03  7.62e-02  0.850   0.5
    6    -79.7679067104652404    -8.09e-03  5.61e-04  3.81e-03  6.43e-02  0.850   0.5
    7    -79.7744680586055210    -6.56e-03  4.78e-04  3.26e-03  5.43e-02  0.850   0.5
    8    -79.7798526209925853    -5.38e-03  4.07e-04  2.77e-03  4.57e-02  0.850   0.5
    9    -79.7842831405976938    -4.43e-03  3.45e-04  2.33e-03  3.85e-02  0.850   0.5
   10    -79.7879392177152624    -3.66e-03  2.92e-04  1.96e-03  3.23e-02  0.850   0.5
   11    -79.7909680670141199    -3.03e-03  2.47e-04  1.65e-03  2.72e-02  0.850   0.5
   12    -79.7934873171963090    -2.52e-03  1.39e-03  9.35e-03  2.29e-02  0.000   0.5
   13    -79.8068853425784255    -1.34e-02  5.28e-05  5.28e-04  1.47e-03  0.000   0.5
                              *** Initializing SOSCF ***
---------------------------------------S-O-S-C-F--------------------------------------
Iteration    Energy (Eh)           Delta-E    RMSDP     MaxDP     MaxGrad    Time(sec)
--------------------------------------------------------------------------------------
   14    -79.8068920693991970    -6.73e-06  1.18e-05  8.39e-05  1.76e-04     0.5
               *** Restarting incremental Fock matrix formation ***
   15    -79.8068924069002037    -3.38e-07  9.20e-06  4.54e-05  4.06e-05     0.7
   16    -79.8068924139357421    -7.04e-09  2.13e-06  1.37e-05  1.51e-05     0.5
                 **** Energy Check signals convergence ****

               *****************************************************
               *                     SUCCESS                       *
               *           SCF CONVERGED AFTER  16 CYCLES          *
               *****************************************************

Recomputing exchange energy using gridx3       ... done (    0.706 sec)
Old exchange energy                            :     -6.751031532 Eh
New exchange energy                            :     -6.751039363 Eh
Exchange energy change after final integration :     -0.000007832 Eh
Total energy after final integration           :    -79.806900249 Eh
             **** ENERGY FILE WAS UPDATED (freq.en.tmp) ****

----------------
TOTAL SCF ENERGY
----------------

Total Energy       :        -79.80690024937176 Eh           -2171.65616 eV

Components:
Nuclear Repulsion  :         42.43128546274638 Eh            1154.61398 eV
Electronic Energy  :       -122.23817788024820 Eh           -3326.26992 eV
One Electron Energy:       -189.64608883322879 Eh           -5160.53243 eV
Two Electron Energy:         67.40791095298059 Eh            1834.26251 eV

Virial components:
Potential Energy   :       -159.16213961698529 Eh           -4331.02200 eV
Kinetic Energy     :         79.35523936761352 Eh            2159.36584 eV
Virial Ratio       :          2.00569163278137

DFT components:
N(Alpha)           :        8.999999633858 electrons
N(Beta)            :        8.999999633858 electrons
N(Total)           :       17.999999267717 electrons
E(XC)              :       -6.304554727488 Eh       

---------------
SCF CONVERGENCE
---------------

  Last Energy change         ...    7.0355e-09  Tolerance :   1.0000e-08
  Last MAX-Density change    ...    1.3708e-05  Tolerance :   1.0000e-07
  Last RMS-Density change    ...    2.1338e-06  Tolerance :   5.0000e-09
  Last DIIS Error            ...    1.7613e-04  Tolerance :   5.0000e-07
  Last Orbital Gradient      ...    1.5122e-05  Tolerance :   1.0000e-05
  Last Orbital Rotation      ...    1.2081e-05  Tolerance :   1.0000e-05


----------------
ORBITAL ENERGIES
----------------

  NO   OCC          E(Eh)            E(eV) 
   0   2.0000     -10.520520      -286.2779 
   1   2.0000     -10.520138      -286.2675 
   2   2.0000      -0.850959       -23.1558 
   3   2.0000      -0.700382       -19.0584 
   4   2.0000      -0.503747       -13.7077 
   5   2.0000      -0.503742       -13.7075 
   6   2.0000      -0.429612       -11.6903 
   7   2.0000      -0.402363       -10.9488 
   8   2.0000      -0.402360       -10.9488 
   9   0.0000       0.076554         2.0831 
  10   0.0000       0.117465         3.1964 
  11   0.0000       0.148770         4.0482 
  12   0.0000       0.148772         4.0483 
  13   0.0000       0.158264         4.3066 
  14   0.0000       0.158266         4.3066 
  15   0.0000       0.228987         6.2310 
  16   0.0000       0.231544         6.3006 
  17   0.0000       0.271412         7.3855 
  18   0.0000       0.271417         7.3856 
  19   0.0000       0.280016         7.6196 
*Only the first 10 virtual orbitals were printed.

                    ********************************
                    * MULLIKEN POPULATION ANALYSIS *
                    ********************************

-----------------------
MULLIKEN ATOMIC CHARGES
-----------------------
   0 C :   -0.320923
   1 C :   -0.320923
   2 H :    0.107110
   3 H :    0.106888
   4 H :    0.106926
   5 H :    0.106888
   6 H :    0.106925
   7 H :    0.107109
Sum of atomic charges:    0.0000000

--------------------------------
MULLIKEN REDUCED ORBITAL CHARGES
--------------------------------
  0 C s       :     3.237495  s :     3.237495
      pz      :     1.049243  p :     3.011078
      px      :     0.912289
      py      :     1.049546
      dz2     :     0.008655  d :     0.069944
      dxz     :     0.022429
      dyz     :     0.007618
      dx2y2   :     0.008756
      dxy     :     0.022485
      f0      :     0.000278  f :     0.002406
      f+1     :     0.000312
      f-1     :     0.000113
      f+2     :     0.000458
      f-2     :     0.000123
      f+3     :     0.000436
      f-3     :     0.000687

  1 C s       :     3.237495  s :     3.237495
      pz      :     1.049244  p :     3.011079
      px      :     0.912288
      py      :     1.049547
      dz2     :     0.008655  d :     0.069943
      dxz     :     0.022430
      dyz     :     0.007618
      dx2y2   :     0.008756
      dxy     :     0.022484
      f0      :     0.000278  f :     0.002406
      f+1     :     0.000312
      f-1     :     0.000113
      f+2     :     0.000458
      f-2     :     0.000123
      f+3     :     0.000436
      f-3     :     0.000687

  2 H s       :     0.863109  s :     0.863109
      pz      :     0.007643  p :     0.028594
      px      :     0.009352
      py      :     0.011599
      dz2     :     0.000111  d :     0.001187
      dxz     :     0.000007
      dyz     :     0.000302
      dx2y2   :     0.000370
      dxy     :     0.000397

  3 H s       :     0.863309  s :     0.863309
      pz      :     0.011090  p :     0.028615
      px      :     0.009288
      py      :     0.008237
      dz2     :     0.000347  d :     0.001188
      dxz     :     0.000348
      dyz     :     0.000259
      dx2y2   :     0.000172
      dxy     :     0.000062

  4 H s       :     0.863281  s :     0.863281
      pz      :     0.010113  p :     0.028606
      px      :     0.009499
      py      :     0.008994
      dz2     :     0.000329  d :     0.001187
      dxz     :     0.000249
      dyz     :     0.000216
      dx2y2   :     0.000250
      dxy     :     0.000145

  5 H s       :     0.863308  s :     0.863308
      pz      :     0.011090  p :     0.028616
      px      :     0.009288
      py      :     0.008237
      dz2     :     0.000347  d :     0.001188
      dxz     :     0.000348
      dyz     :     0.000259
      dx2y2   :     0.000172
      dxy     :     0.000062

  6 H s       :     0.863282  s :     0.863282
      pz      :     0.010113  p :     0.028606
      px      :     0.009499
      py      :     0.008994
      dz2     :     0.000329  d :     0.001187
      dxz     :     0.000249
      dyz     :     0.000216
      dx2y2   :     0.000250
      dxy     :     0.000145

  7 H s       :     0.863109  s :     0.863109
      pz      :     0.007643  p :     0.028594
      px      :     0.009352
      py      :     0.011599
      dz2     :     0.000111  d :     0.001187
      dxz     :     0.000007
      dyz     :     0.000302
      dx2y2   :     0.000370
      dxy     :     0.000397



                     *******************************
                     * LOEWDIN POPULATION ANALYSIS *
                     *******************************

----------------------
LOEWDIN ATOMIC CHARGES
----------------------
   0 C :   -0.018189
   1 C :   -0.018189
   2 H :    0.006064
   3 H :    0.006066
   4 H :    0.006058
   5 H :    0.006066
   6 H :    0.006058
   7 H :    0.006064

-------------------------------
LOEWDIN REDUCED ORBITAL CHARGES
-------------------------------
  0 C s       :     2.706538  s :     2.706538
      pz      :     1.017838  p :     2.987607
      px      :     0.951865
      py      :     1.017905
      dz2     :     0.047273  d :     0.294313
      dxz     :     0.074910
      dyz     :     0.037923
      dx2y2   :     0.059202
      dxy     :     0.075005
      f0      :     0.002496  f :     0.029730
      f+1     :     0.004597
      f-1     :     0.004088
      f+2     :     0.003736
      f-2     :     0.004175
      f+3     :     0.004989
      f-3     :     0.005648

  1 C s       :     2.706538  s :     2.706538
      pz      :     1.017838  p :     2.987607
      px      :     0.951864
      py      :     1.017905
      dz2     :     0.047273  d :     0.294313
      dxz     :     0.074910
      dyz     :     0.037923
      dx2y2   :     0.059202
      dxy     :     0.075005
      f0      :     0.002496  f :     0.029730
      f+1     :     0.004597
      f-1     :     0.004089
      f+2     :     0.003736
      f-2     :     0.004175
      f+3     :     0.004989
      f-3     :     0.005648

  2 H s       :     0.815897  s :     0.815897
      pz      :     0.041035  p :     0.148747
      px      :     0.043728
      py      :     0.063984
      dz2     :     0.002618  d :     0.029292
      dxz     :     0.000958
      dyz     :     0.008897
      dx2y2   :     0.008323
      dxy     :     0.008495

  3 H s       :     0.815893  s :     0.815893
      pz      :     0.060896  p :     0.148748
      px      :     0.043393
      py      :     0.044459
      dz2     :     0.009351  d :     0.029292
      dxz     :     0.007441
      dyz     :     0.007678
      dx2y2   :     0.002838
      dxy     :     0.001984

  4 H s       :     0.815904  s :     0.815904
      pz      :     0.055365  p :     0.148746
      px      :     0.044507
      py      :     0.048874
      dz2     :     0.008600  d :     0.029292
      dxz     :     0.005802
      dyz     :     0.006378
      dx2y2   :     0.004788
      dxy     :     0.003723

  5 H s       :     0.815893  s :     0.815893
      pz      :     0.060896  p :     0.148748
      px      :     0.043393
      py      :     0.044460
      dz2     :     0.009351  d :     0.029292
      dxz     :     0.007441
      dyz     :     0.007678
      dx2y2   :     0.002838
      dxy     :     0.001984

  6 H s       :     0.815904  s :     0.815904
      pz      :     0.055365  p :     0.148746
      px      :     0.044507
      py      :     0.048874
      dz2     :     0.008601  d :     0.029291
      dxz     :     0.005802
      dyz     :     0.006378
      dx2y2   :     0.004788
      dxy     :     0.003723

  7 H s       :     0.815897  s :     0.815897
      pz      :     0.041035  p :     0.148747
      px      :     0.043728
      py      :     0.063984
      dz2     :     0.002618  d :     0.029292
      dxz     :     0.000958
      dyz     :     0.008897
      dx2y2   :     0.008323
      dxy     :     0.008495



                      *****************************
                      * MAYER POPULATION ANALYSIS *
                      *****************************

  NA   - Mulliken gross atomic population
  ZA   - Total nuclear charge
  QA   - Mulliken gross atomic charge
  VA   - Mayer's total valence
  BVA  - Mayer's bonded valence
  FA   - Mayer's free valence

  ATOM       NA         ZA         QA         VA         BVA        FA
  0 C      6.3209     6.0000    -0.3209     3.8712     3.8712     0.0000
  1 C      6.3209     6.0000    -0.3209     3.8712     3.8712    -0.0000
  2 H      0.8929     1.0000     0.1071     0.9783     0.9783    -0.0000
  3 H      0.8931     1.0000     0.1069     0.9783     0.9783     0.0000
  4 H      0.8931     1.0000     0.1069     0.9783     0.9783     0.0000
  5 H      0.8931     1.0000     0.1069     0.9783     0.9783     0.0000
  6 H      0.8931     1.0000     0.1069     0.9783     0.9783     0.0000
  7 H      0.8929     1.0000     0.1071     0.9783     0.9783    -0.0000

  Mayer bond orders larger than 0.100000
B(  0-C ,  1-C ) :   0.9320 B(  0-C ,  2-H ) :   0.9843 B(  0-C ,  3-H ) :   0.9843 
B(  0-C ,  4-H ) :   0.9843 B(  1-C ,  5-H ) :   0.9843 B(  1-C ,  6-H ) :   0.9843 
B(  1-C ,  7-H ) :   0.9843 

-------
TIMINGS
-------

Total SCF time: 0 days 0 hours 0 min 11 sec 

Total time                  ....      11.025 sec
Sum of individual times     ....      10.452 sec  ( 94.8%)

SCF preparation             ....       1.645 sec  ( 14.9%)
Fock matrix formation       ....       8.497 sec  ( 77.1%)
  Startup                   ....       0.005 sec  (  0.1% of F)
  Split-RI-J                ....       0.260 sec  (  3.1% of F)
  Chain of spheres X        ....       4.412 sec  ( 51.9% of F)
  XC integration            ....       4.186 sec  ( 49.3% of F)
    XC Preparation          ....       0.000 sec  (  0.0% of XC)
    Basis function eval.    ....       0.659 sec  ( 15.7% of XC)
    Density eval.           ....       1.028 sec  ( 24.6% of XC)
    XC-Functional eval.     ....       0.271 sec  (  6.5% of XC)
    XC-Potential eval.      ....       1.737 sec  ( 41.5% of XC)
Diagonalization             ....       0.000 sec  (  0.0%)
Density matrix formation    ....       0.040 sec  (  0.4%)
Total Energy calculation    ....       0.019 sec  (  0.2%)
Population analysis         ....       0.013 sec  (  0.1%)
Orbital Transformation      ....       0.019 sec  (  0.2%)
Orbital Orthonormalization  ....       0.000 sec  (  0.0%)
DIIS solution               ....       0.194 sec  (  1.8%)
SOSCF solution              ....       0.026 sec  (  0.2%)
Finished LeanSCF after  11.0 sec

Maximum memory used throughout the entire LEANSCF-calculation: 10.6 MB

-------------------------   --------------------
FINAL SINGLE POINT ENERGY       -79.806900249372
-------------------------   --------------------



           ************************************************************
           *        Program running with 8 parallel MPI-processes     *
           *              working on a common directory               *
           ************************************************************
------------------------------------------------------------------------------
                         ORCA SCF GRADIENT CALCULATION
------------------------------------------------------------------------------

Nuc. rep. gradient        (SHARK) ... done (  0.0 sec)
HCore & Overlap gradient  (SHARK) ... done (  0.0 sec)
Split-RIJ-J gradient      (SHARK) ... done (  0.1 sec)
COSX-gradient                     ... done (  2.6 sec)
XC gradient                       ... done (  0.6 sec)

------------------
CARTESIAN GRADIENT
------------------

   1   C   :    0.004045401   -0.000017057    0.000125986
   2   C   :   -0.004045782    0.000016400   -0.000125942
   3   H   :    0.000036706   -0.000184772   -0.000024888
   4   H   :    0.000036740    0.000056462    0.000175660
   5   H   :    0.000032709    0.000106302   -0.000143014
   6   H   :   -0.000035909   -0.000056346   -0.000175218
   7   H   :   -0.000033023   -0.000106341    0.000142453
   8   H   :   -0.000036843    0.000185353    0.000024963

Difference to translation invariance:
           :   -0.0000000000   -0.0000000000   -0.0000000000

Difference to rotation invariance:
           :   -0.0000908675   -0.0000362641   -0.0000061112

Norm of the Cartesian gradient     ...    0.0057423370
RMS gradient                       ...    0.0011721496
MAX gradient                       ...    0.0040457817

-------
TIMINGS
-------

Total SCF gradient time     ....        3.393 sec

Densities                   ....       0.001 sec  (  0.0%)
One electron gradient       ....       0.020 sec  (  0.6%)
RI-J Coulomb gradient       ....       0.129 sec  (  3.8%)
COSX gradient               ....       2.609 sec  ( 76.9%)
XC gradient                 ....       0.635 sec  ( 18.7%)

Maximum memory used throughout the entire SCFGRAD-calculation: 14.6 MB
------------------------------------------------------------------------------
                         ORCA GEOMETRY RELAXATION STEP
------------------------------------------------------------------------------

Reading the OPT-File                    .... done
Getting information on internals        .... done
Copying old internal coords+grads       .... done
Making the new internal coordinates     .... (2022 redundants) done
Validating the new internal coordinates .... (2022 redundants) done
Calculating the B-matrix                .... done
Calculating the G,G- and P matrices     .... done
Transforming gradient to internals      .... done
Projecting the internal gradient        .... done
Number of atoms                         ....   8
Number of internal coordinates          ....  25
Current Energy                          ....   -79.806900249 Eh
Current gradient norm                   ....     0.005742337 Eh/bohr
Maximum allowed component of the step   ....  0.300
Current trust radius                    ....  0.300
Evaluating the initial hessian          ....  (Almloef) done
Projecting the Hessian                  .... done
Forming the augmented Hessian           .... done
Diagonalizing the augmented Hessian     .... done
Last element of RFO vector              ....  0.999943454
Lowest eigenvalues of augmented Hessian:
 -0.000044445  0.012302497  0.105367725  0.132275388  0.132281097
Length of the computed step             ....  0.010634877
The final length of the internal step   ....  0.010634877
Converting the step to Cartesian space:
 Initial RMS(Int)=    0.0021269753
Transforming coordinates:
 Iter   0:  RMS(Cart)=    0.0030524546 RMS(Int)=    0.0021269750
done
Storing new coordinates                 .... done

                                .--------------------.
          ----------------------|Geometry convergence|-------------------------
          Item                value                   Tolerance       Converged
          ---------------------------------------------------------------------
          RMS gradient        0.0008359333            0.0001000000      NO
          MAX gradient        0.0041538908            0.0003000000      NO
          RMS step            0.0021269753            0.0020000000      NO
          MAX step            0.0105543528            0.0040000000      NO
          -------------------------------------------------------------------------
          ........................................................
          Max(Bonds)      0.0056      Max(Angles)    0.01
          Max(Dihed)        0.00      Max(Improp)    0.00
          ---------------------------------------------------------------------

The optimization has not yet converged - more geometry cycles are needed


    ---------------------------------------------------------------------------
                         Redundant Internal Coordinates
                            (Angstroem and degrees)

        Definition                    Value    dE/dq     Step     New-Value
    ----------------------------------------------------------------------------
     1. B(C   1,C   0)                1.5158 -0.004154  0.0056    1.5214   
     2. B(H   2,C   0)                1.0896 -0.000187  0.0003    1.0899   
     3. B(H   3,C   0)                1.0896 -0.000186  0.0003    1.0899   
     4. B(H   4,C   0)                1.0896 -0.000176  0.0003    1.0899   
     5. B(H   5,C   1)                1.0896 -0.000186  0.0003    1.0899   
     6. B(H   6,C   1)                1.0896 -0.000175  0.0003    1.0899   
     7. B(H   7,C   1)                1.0896 -0.000188  0.0003    1.0899   
     8. A(H   2,C   0,H   4)          107.53 -0.000035    0.01    107.54   
     9. A(C   1,C   0,H   4)          111.35  0.000038   -0.01    111.34   
    10. A(C   1,C   0,H   2)          111.35  0.000034   -0.01    111.34   
    11. A(H   3,C   0,H   4)          107.53 -0.000041    0.01    107.54   
    12. A(H   2,C   0,H   3)          107.53 -0.000027    0.00    107.54   
    13. A(C   1,C   0,H   3)          111.34  0.000025   -0.00    111.34   
    14. A(C   0,C   1,H   5)          111.34  0.000027   -0.00    111.34   
    15. A(H   6,C   1,H   7)          107.53 -0.000037    0.01    107.54   
    16. A(H   5,C   1,H   7)          107.53 -0.000027    0.00    107.54   
    17. A(C   0,C   1,H   7)          111.35  0.000033   -0.01    111.34   
    18. A(H   5,C   1,H   6)          107.53 -0.000039    0.01    107.54   
    19. A(C   0,C   1,H   6)          111.35  0.000037   -0.01    111.34   
    20. D(H   5,C   1,C   0,H   3)    180.00  0.000001   -0.00    180.00   
    21. D(H   5,C   1,C   0,H   4)    -60.00 -0.000008    0.00    -60.00   
    22. D(H   6,C   1,C   0,H   2)    -60.00  0.000003   -0.00    -60.00   
    23. D(H   6,C   1,C   0,H   3)     60.00  0.000008   -0.00     60.00   
    24. D(H   6,C   1,C   0,H   4)    180.00 -0.000001    0.00    180.00   
    25. D(H   5,C   1,C   0,H   2)     60.00 -0.000004    0.00     60.00   
    ----------------------------------------------------------------------------

Geometry step timings:
Preparation and reading OPT file:      0.000 s ( 2.489 %)
Internal coordinates            :      0.000 s ( 2.276 %)
B/P matrices and projection     :      0.000 s (20.555 %)
Hessian update/contruction      :      0.000 s (16.999 %)
Making the step                 :      0.000 s (17.923 %)
Converting the step to Cartesian:      0.000 s ( 3.414 %)
Storing new data                :      0.000 s ( 3.841 %)
Checking convergence            :      0.000 s ( 3.983 %)
Final printing                  :      0.000 s (28.450 %)
Total time                      :      0.001 s

Time for energy+gradient        :     21.549 s
Time for complete geometry iter :     23.370 s

         *************************************************************
         *                GEOMETRY OPTIMIZATION CYCLE   2            *
         *************************************************************
---------------------------------
CARTESIAN COORDINATES (ANGSTROEM)
---------------------------------
  C     -0.760276    0.008137   -0.024400
  C      0.760276   -0.008138    0.024399
  H     -1.149492    1.021201    0.076133
  H     -1.131167   -0.394176   -0.966994
  H     -1.189326   -0.589839    0.779471
  H      1.131163    0.394201    0.966982
  H      1.189330    0.589817   -0.779485
  H      1.149493   -1.021205   -0.076105

----------------------------
CARTESIAN COORDINATES (A.U.)
----------------------------
  NO LB      ZA    FRAG     MASS         X           Y           Z
   0 C     6.0000    0    12.011   -1.436713    0.015377   -0.046110
   1 C     6.0000    0    12.011    1.436713   -0.015379    0.046107
   2 H     1.0000    0     1.008   -2.172224    1.929790    0.143870
   3 H     1.0000    0     1.008   -2.137596   -0.744884   -1.827355
   4 H     1.0000    0     1.008   -2.247500   -1.114633    1.472986
   5 H     1.0000    0     1.008    2.137589    0.744932    1.827331
   6 H     1.0000    0     1.008    2.247508    1.114593   -1.473013
   7 H     1.0000    0     1.008    2.172226   -1.929797   -0.143818

--------------------------------
INTERNAL COORDINATES (ANGSTROEM)
--------------------------------
 C      0   0   0     0.000000000000     0.00000000     0.00000000
 C      1   0   0     1.521421639429     0.00000000     0.00000000
 H      1   2   0     1.089905298576   111.33929915     0.00000000
 H      1   2   3     1.089907982458   111.33941834   119.99818291
 H      1   2   3     1.089893509231   111.34056276   240.00041386
 H      2   1   3     1.089906913591   111.33918213    60.00022068
 H      2   1   3     1.089893236285   111.34078746   299.99824407
 H      2   1   3     1.089905511347   111.33940852   179.99833743

---------------------------
INTERNAL COORDINATES (A.U.)
---------------------------
 C      0   0   0     0.000000000000     0.00000000     0.00000000
 C      1   0   0     2.875070232742     0.00000000     0.00000000
 H      1   2   0     2.059622526218   111.33929915     0.00000000
 H      1   2   3     2.059627598021   111.33941834   119.99818291
 H      1   2   3     2.059600247585   111.34056276   240.00041386
 H      2   1   3     2.059625578155   111.33918213    60.00022068
 H      2   1   3     2.059599731792   111.34078746   299.99824407
 H      2   1   3     2.059622928296   111.33940852   179.99833743



           ************************************************************
           *        Program running with 8 parallel MPI-processes     *
           *              working on a common directory               *
           ************************************************************
------------------------------------------------------------------------------
                   ___                                                        
                  /   \      - P O W E R E D   B Y -                         
                 /     \                                                     
                 |  |  |   _    _      __       _____    __    __             
                 |  |  |  | |  | |    /  \     |  _  \  |  |  /  |          
                  \  \/   | |  | |   /    \    | | | |  |  | /  /          
                 / \  \   | |__| |  /  /\  \   | |_| |  |  |/  /          
                |  |  |   |  __  | /  /__\  \  |    /   |      \           
                |  |  |   | |  | | |   __   |  |    \   |  |\   \          
                \     /   | |  | | |  |  |  |  | |\  \  |  | \   \       
                 \___/    |_|  |_| |__|  |__|  |_| \__\ |__|  \__/        
                                                                              
                      - O R C A' S   B I G   F R I E N D -                    
                                      &                                       
                       - I N T E G R A L  F E E D E R -                       
                                                                              
 v1 FN, 2020, v2 2021, v3 2022-2024                                           
------------------------------------------------------------------------------


----------------------
SHARK INTEGRAL PACKAGE
----------------------

Number of atoms                             ...      8
Number of basis functions                   ...    146
Number of shells                            ...     58
Maximum angular momentum                    ...      3
Integral batch strategy                     ... SHARK/LIBINT Hybrid
RI-J (if used) integral strategy            ... SPLIT-RIJ (Revised 2003 algorithm where possible)
Printlevel                                  ...      1
Contraction scheme used                     ... SEGMENTED contraction
Prescreening option                         ... SCHWARTZ
   Thresh                                   ... 2.500e-11
   Tcut                                     ... 2.500e-12
   Tpresel                                  ... 2.500e-12 
Coulomb Range Separation                    ... NOT USED
Exchange Range Separation                   ... NOT USED
Multipole approximations                    ... NOT USED
Finite Nucleus Model                        ... NOT USED
CABS basis                                  ... NOT available
Auxiliary Coulomb fitting basis             ... AVAILABLE
   # of basis functions in Aux-J            ...    164
   # of shells in Aux-J                     ...     60
   Maximum angular momentum in Aux-J        ...      4
Auxiliary J/K fitting basis                 ... NOT available
Auxiliary Correlation fitting basis         ... AVAILABLE
   # of basis functions in Aux-C            ...    332
   # of shells in Aux-C                     ...    104
   Maximum angular momentum in Aux-C        ...      4
Auxiliary 'external' fitting basis          ... NOT available

Checking pre-screening integrals            ... done (  0.0 sec) Dimension = 58
   => SHARK Basis and OBASIS are compatible. Storing Pre-screening
Shell pair information
Shell pair cut-off parameter TPreSel        ...   2.5e-12
Total number of shell pairs                 ...      1711
Shell pairs after pre-screening             ...      1710
Total number of primitive shell pairs       ...      3978
Primitive shell pairs kept                  ...      3624
          la=0 lb=0:    405 shell pairs
          la=1 lb=0:    504 shell pairs
          la=1 lb=1:    171 shell pairs
          la=2 lb=0:    280 shell pairs
          la=2 lb=1:    180 shell pairs
          la=2 lb=2:     55 shell pairs
          la=3 lb=0:     56 shell pairs
          la=3 lb=1:     36 shell pairs
          la=3 lb=2:     20 shell pairs
          la=3 lb=3:      3 shell pairs

Checking whether 4 symmetric matrices of dimension 146 fit in memory
:Max Core in MB      =   4000.00
 MB in use           =      5.54
 MB left             =   3994.46
 MB needed           =      0.33
 Data fit in memory  = YES
Calculating RI/J V-Matrix + Cholesky decomp.... done (  0.0 sec)
Calculating RI/C V-Matrix + Cholesky decomp.... done (  0.0 sec)
Calculating Nuclear repulsion               ... done (  0.0 sec) ENN=     42.356428263215 Eh

Diagonalization of the overlap matrix:
Smallest eigenvalue                        ... 3.983e-04
Time for diagonalization                   ...    0.003 sec
Threshold for overlap eigenvalues          ... 1.000e-07
Number of eigenvalues below threshold      ... 0
Time for construction of square roots      ...    0.001 sec
Total time needed                          ...    0.005 sec

-------------------
DFT GRID GENERATION
-------------------

General Integration Accuracy     IntAcc      ... 4.959
Radial Grid Type                 RadialGrid  ... OptM3 with GC (2021)
Angular Grid (max. ang.)         AngularGrid ... 6 (Lebedev-590)
Angular grid pruning method      GridPruning ... 4 (adaptive)
Weight generation scheme         WeightScheme... mBecke (2022)
Basis function cutoff            BFCut       ... 1.0000e-11
Integration weight cutoff        WCut        ... 1.0000e-14
Partially contracted basis set               ... off
Rotationally invariant grid construction     ... off
Angular grids for H and He will be reduced by one unit

Total number of grid points                  ...    82236
Total number of batches                      ...     1290
Average number of points per batch           ...       63
Average number of grid points per atom       ...    10280

--------------------
COSX GRID GENERATION
--------------------

GRIDX 1
-------
General Integration Accuracy     IntAcc      ... 4.020
Radial Grid Type                 RadialGrid  ... OptM3 with GC (2021)
Angular Grid (max. ang.)         AngularGrid ... 2 (Lebedev-110)
Angular grid pruning method      GridPruning ... 4 (adaptive)
Weight generation scheme         WeightScheme... mBecke (2022)
Basis function cutoff            BFCut       ... 1.0000e-11
Integration weight cutoff        WCut        ... 1.0000e-14
Partially contracted basis set               ... on
Rotationally invariant grid construction     ... off
Angular grids for H and He will be reduced by one unit

Total number of grid points                  ...     8394
Total number of batches                      ...       70
Average number of points per batch           ...      119
Average number of grid points per atom       ...     1049
UseSFitting                                  ... on

GRIDX 2
-------
General Integration Accuracy     IntAcc      ... 4.338
Radial Grid Type                 RadialGrid  ... OptM3 with GC (2021)
Angular Grid (max. ang.)         AngularGrid ... 3 (Lebedev-194)
Angular grid pruning method      GridPruning ... 4 (adaptive)
Weight generation scheme         WeightScheme... mBecke (2022)
Basis function cutoff            BFCut       ... 1.0000e-11
Integration weight cutoff        WCut        ... 1.0000e-14
Partially contracted basis set               ... on
Rotationally invariant grid construction     ... off
Angular grids for H and He will be reduced by one unit

Total number of grid points                  ...    18448
Total number of batches                      ...      146
Average number of points per batch           ...      126
Average number of grid points per atom       ...     2306
UseSFitting                                  ... on

GRIDX 3
-------
General Integration Accuracy     IntAcc      ... 4.871
Radial Grid Type                 RadialGrid  ... OptM3 with GC (2021)
Angular Grid (max. ang.)         AngularGrid ... 4 (Lebedev-302)
Angular grid pruning method      GridPruning ... 4 (adaptive)
Weight generation scheme         WeightScheme... mBecke (2022)
Basis function cutoff            BFCut       ... 1.0000e-11
Integration weight cutoff        WCut        ... 1.0000e-14
Partially contracted basis set               ... on
Rotationally invariant grid construction     ... off
Angular grids for H and He will be reduced by one unit

Total number of grid points                  ...    38016
Total number of batches                      ...      300
Average number of points per batch           ...      126
Average number of grid points per atom       ...     4752
UseSFitting                                  ... on
Grids setup in   0.9 sec
Initializing property integral containers    ... done (  0.0 sec)

SHARK setup successfully completed in   1.0 seconds

Maximum memory used throughout the entire STARTUP-calculation: 20.5 MB


           ************************************************************
           *        Program running with 8 parallel MPI-processes     *
           *              working on a common directory               *
           ************************************************************
Occupation numbers will be reassigned to an Aufbau configuration
             **** ENERGY FILE WAS UPDATED (freq.en.tmp) ****
Finished Guess after   1.7 sec
Maximum memory used throughout the entire GUESS-calculation: 9.5 MB


           ************************************************************
           *        Program running with 8 parallel MPI-processes     *
           *              working on a common directory               *
           ************************************************************
----------------------------------------D-I-I-S--------------------------------------------
Iteration    Energy (Eh)           Delta-E    RMSDP     MaxDP     DIISErr   Damp  Time(sec)
-------------------------------------------------------------------------------------------
               ***  Starting incremental Fock matrix formation  ***
    1    -79.8069137476587116     0.00e+00  1.04e-05  9.64e-05  1.18e-03  0.850   0.7
    2    -79.8069145324068643    -7.85e-07  1.03e-05  9.22e-05  1.03e-03  0.850   0.4
                               ***Turning on AO-DIIS***
                              *** Initializing SOSCF ***
---------------------------------------S-O-S-C-F--------------------------------------
Iteration    Energy (Eh)           Delta-E    RMSDP     MaxDP     MaxGrad    Time(sec)
--------------------------------------------------------------------------------------
    3    -79.8069152261640227    -6.94e-07  6.32e-05  5.18e-04  8.75e-04     0.4
               *** Restarting incremental Fock matrix formation ***
    4    -79.8069194574305101    -4.23e-06  9.60e-06  7.69e-05  4.26e-05     0.7
    5    -79.8069195046982856    -4.73e-08  2.54e-06  2.17e-05  1.15e-05     0.6
    6    -79.8069195063984296    -1.70e-09  4.49e-07  4.58e-06  3.13e-06     0.5
                 **** Energy Check signals convergence ****

               *****************************************************
               *                     SUCCESS                       *
               *           SCF CONVERGED AFTER   6 CYCLES          *
               *****************************************************

Recomputing exchange energy using gridx3       ... done (    0.689 sec)
Old exchange energy                            :     -6.749363636 Eh
New exchange energy                            :     -6.749358521 Eh
Exchange energy change after final integration :      0.000005114 Eh
Total energy after final integration           :    -79.806914393 Eh
             **** ENERGY FILE WAS UPDATED (freq.en.tmp) ****

----------------
TOTAL SCF ENERGY
----------------

Total Energy       :        -79.80691439330492 Eh           -2171.65655 eV

Components:
Nuclear Repulsion  :         42.35642826321480 Eh            1152.57701 eV
Electronic Energy  :       -122.16334777073205 Eh           -3324.23369 eV
One Electron Energy:       -189.49976395034588 Eh           -5156.55073 eV
Two Electron Energy:         67.33641617961383 Eh            1832.31704 eV

Virial components:
Potential Energy   :       -159.15030246526254 Eh           -4330.69990 eV
Kinetic Energy     :         79.34338807195763 Eh            2159.04335 eV
Virial Ratio       :          2.00584202833545

DFT components:
N(Alpha)           :        8.999999636541 electrons
N(Beta)            :        8.999999636541 electrons
N(Total)           :       17.999999273081 electrons
E(XC)              :       -6.303169195519 Eh       

---------------
SCF CONVERGENCE
---------------

  Last Energy change         ...    1.7001e-09  Tolerance :   1.0000e-08
  Last MAX-Density change    ...    4.5751e-06  Tolerance :   1.0000e-07
  Last RMS-Density change    ...    4.4889e-07  Tolerance :   5.0000e-09
  Last DIIS Error            ...    8.7475e-04  Tolerance :   5.0000e-07
  Last Orbital Gradient      ...    3.1251e-06  Tolerance :   1.0000e-05
  Last Orbital Rotation      ...    2.3565e-06  Tolerance :   1.0000e-05


Total SCF time: 0 days 0 hours 0 min 6 sec 
Finished LeanSCF after   6.2 sec

Maximum memory used throughout the entire LEANSCF-calculation: 10.7 MB

-------------------------   --------------------
FINAL SINGLE POINT ENERGY       -79.806914393305
-------------------------   --------------------



           ************************************************************
           *        Program running with 8 parallel MPI-processes     *
           *              working on a common directory               *
           ************************************************************
------------------------------------------------------------------------------
                         ORCA SCF GRADIENT CALCULATION
------------------------------------------------------------------------------

Nuc. rep. gradient        (SHARK) ... done (  0.0 sec)
HCore & Overlap gradient  (SHARK) ... done (  0.0 sec)
Split-RIJ-J gradient      (SHARK) ... done (  0.1 sec)
COSX-gradient                     ... done (  2.7 sec)
XC gradient                       ... done (  0.6 sec)

------------------
CARTESIAN GRADIENT
------------------

   1   C   :    0.001495736   -0.000003382    0.000049645
   2   C   :   -0.001495928    0.000003785   -0.000049199
   3   H   :   -0.000188333   -0.000013521   -0.000015029
   4   H   :   -0.000187523   -0.000005259    0.000010624
   5   H   :   -0.000193110    0.000014314   -0.000017602
   6   H   :    0.000187547    0.000004937   -0.000011732
   7   H   :    0.000193354   -0.000015026    0.000018073
   8   H   :    0.000188258    0.000014153    0.000015220

Difference to translation invariance:
[...]
     20       0.000000   0.000000   0.000000   0.000000   0.000000   0.000000
     21       0.000000   0.000000   0.000000   0.000000   0.000000   0.000000
     22       0.000000   0.000000   0.000000   0.000000   0.000000   0.000000
     23       0.000000   0.000000   0.000000   0.000000   0.000000   0.000000
                  6          7          8          9         10         11    
      0       0.000049   0.000003  -0.001318  -0.309558   0.002778  -0.003615
      1       0.000001  -0.045759  -0.013839   0.003234   0.142540   0.024573
      2      -0.000303  -0.013720   0.045959  -0.009702  -0.024537   0.142701
      3       0.000022  -0.000334  -0.001666   0.309681  -0.002749   0.003698
      4       0.000043  -0.046009  -0.013667  -0.003510  -0.142434  -0.024600
      5      -0.000128  -0.013723   0.045900   0.009807   0.024691  -0.142541
      6      -0.013905   0.498782   0.097820  -0.366472  -0.481786  -0.131687
      7      -0.045811   0.142621   0.050847  -0.012262  -0.058691   0.013324
      8       0.407112   0.072920  -0.213206  -0.014132   0.052500  -0.260649
      9       0.008018  -0.325219   0.392311  -0.366077   0.113559   0.482102
     10       0.373647   0.200460   0.083386   0.011620  -0.241256   0.032857
     11      -0.162648   0.012877  -0.154793   0.002702   0.093785  -0.060089
     12       0.005524  -0.170612  -0.471781  -0.367362   0.356605  -0.340255
     13      -0.327985   0.203133   0.029641   0.014341  -0.173844  -0.127334
     14      -0.241318   0.077762  -0.179363  -0.024979  -0.063686  -0.156746
     15       0.008160  -0.326158   0.392200   0.365736  -0.112359  -0.483037
     16       0.373825   0.201124   0.083303  -0.009931   0.240986  -0.031136
     17      -0.162788   0.012836  -0.154900  -0.003542  -0.093889   0.059871
     18       0.005376  -0.171717  -0.471465   0.364844  -0.357229   0.340720
     19      -0.328586   0.203335   0.029659  -0.013305   0.172927   0.125958
     20      -0.241518   0.077975  -0.179202   0.025081   0.062903   0.156236
     21      -0.014019   0.498860   0.096471   0.367868   0.480864   0.131172
     22      -0.045623   0.142798   0.050913   0.012820   0.058612  -0.013346
     23       0.406299   0.072637  -0.213102   0.013616  -0.053444   0.259478
                 12         13         14         15         16         17    
      0       0.095582  -0.108358   0.000886  -0.000666   0.000489   0.000664
      1      -0.001207   0.001960   0.013394  -0.019438  -0.001443   0.048163
      2       0.002621  -0.002718  -0.022906  -0.014322  -0.045708  -0.000565
      3       0.090336   0.112921  -0.000139   0.000533   0.001415   0.000553
      4      -0.000964  -0.001804  -0.008636   0.016962  -0.001693   0.050254
      5       0.002498   0.003309   0.011611   0.007386  -0.051788  -0.002017
      6      -0.379243   0.356554   0.117674  -0.274970  -0.038620   0.210140
      7      -0.164721   0.166159  -0.002143  -0.130770  -0.062162   0.107012
      8      -0.028104   0.025242   0.499595   0.217984   0.431216   0.071842
      9      -0.381611   0.357326   0.175703   0.269348   0.174907  -0.100139
     10       0.071981  -0.073613  -0.437803   0.204034  -0.191021  -0.390445
     11       0.142035  -0.141628   0.113609  -0.198242  -0.020296   0.219907
     12      -0.371699   0.349511  -0.314514   0.010858  -0.141677  -0.118134
     13       0.107623  -0.111087   0.121734   0.409417   0.271139  -0.276100
     14      -0.145922   0.143469  -0.085290   0.309475   0.092884  -0.294596
     15      -0.364226  -0.377716  -0.139413  -0.233348   0.246025  -0.094075
     16       0.065523   0.077519   0.343878  -0.217211  -0.251985  -0.443046
     17       0.136516   0.149700  -0.093804   0.184279  -0.023085   0.239839
     18      -0.357221  -0.366262   0.258934  -0.029441  -0.209304  -0.148417
     19       0.101750   0.112278  -0.078590  -0.351732   0.353122  -0.283839
     20      -0.140579  -0.152925   0.077273  -0.279877   0.117284  -0.316850
     21      -0.361331  -0.373777  -0.107275   0.259147  -0.054020   0.236117
     22      -0.156292  -0.173123  -0.003768   0.115769  -0.081721   0.113720
     23      -0.024938  -0.030898  -0.376792  -0.150967   0.563735   0.110625
                 18         19         20         21         22         23    
      0       0.038665  -0.031836  -0.001534  -0.001884   0.001467  -0.001588
      1      -0.001612   0.000877  -0.064583   0.007737   0.064627   0.012924
      2       0.000855  -0.000778   0.007190   0.065734  -0.013285   0.063460
      3      -0.033717  -0.036972   0.001656   0.001810   0.001462  -0.001855
      4       0.001425   0.001253   0.065151  -0.006600   0.064187   0.012876
      5      -0.001123  -0.000894  -0.007025  -0.064023  -0.012466   0.065331
      6      -0.149293   0.125866  -0.192202   0.044832   0.193516   0.059996
      7       0.418765  -0.359347   0.513705  -0.122932  -0.506390  -0.159740
      8       0.042097  -0.036266   0.054611   0.003839  -0.054618  -0.002640
      9      -0.135654   0.116365   0.058028  -0.185451  -0.041393  -0.188170
     10      -0.160018   0.139946   0.051070  -0.211668  -0.033250  -0.208777
     11      -0.373494   0.326839   0.159226  -0.483253  -0.112606  -0.481747
     12      -0.160494   0.137752   0.152370   0.163208  -0.169530   0.147082
     13      -0.239642   0.209007   0.207998   0.242125  -0.230469   0.214612
     14       0.321827  -0.281222  -0.299953  -0.306934   0.325510  -0.271661
     15       0.118796   0.134373  -0.059518   0.179722  -0.043164  -0.192536
     16       0.139650   0.161005  -0.052536   0.205401  -0.035369  -0.213577
     17       0.325895   0.375872  -0.162846   0.468246  -0.117139  -0.492664
     18       0.137982   0.158987  -0.153780  -0.160585  -0.166588   0.153210
     19       0.206108   0.240492  -0.209744  -0.238478  -0.226036   0.223613
     20      -0.276921  -0.323362   0.302184   0.302481   0.319732  -0.283310
     21       0.129703   0.146556   0.193651  -0.040841   0.192258   0.061436
     22      -0.362645  -0.416487  -0.517260   0.112007  -0.503391  -0.163558
     23      -0.036207  -0.041926  -0.055187  -0.004774  -0.054043  -0.002616


-----------
IR SPECTRUM
-----------

 Mode   freq       eps      Int      T**2         TX        TY        TZ
       cm**-1   L/(mol*cm) km/mol    a.u.
----------------------------------------------------------------------------
  6:    305.12   0.000001    0.00  0.000001  (-0.000093  0.000420  0.000877)
  7:    824.26   0.000650    3.28  0.000246  ( 0.000108  0.015010  0.004550)
  8:    824.85   0.000659    3.33  0.000249  ( 0.000539  0.004420 -0.015150)
  9:   1022.35   0.000000    0.00  0.000000  ( 0.000041  0.000022  0.000005)
 10:   1220.59   0.000000    0.00  0.000000  ( 0.000080 -0.000077  0.000004)
 11:   1221.30   0.000000    0.00  0.000000  (-0.000043  0.000106 -0.000011)
 12:   1407.84   0.000242    1.22  0.000054  (-0.007316  0.000262 -0.000245)
 13:   1426.30   0.000000    0.00  0.000000  (-0.000237  0.000050 -0.000141)
 14:   1507.06   0.000029    0.15  0.000006  ( 0.000002 -0.001096  0.002210)
 15:   1507.87   0.000010    0.05  0.000002  ( 0.000068  0.000381  0.001410)
 16:   1509.95   0.001769    8.94  0.000366  (-0.000558  0.001016  0.019083)
 17:   1510.72   0.001854    9.37  0.000383  (-0.000145 -0.019564  0.000405)
 18:   3060.60   0.000049    0.25  0.000005  ( 0.002228  0.000073 -0.000061)
 19:   3062.53   0.009626   48.64  0.000981  (-0.031285  0.000938 -0.001095)
 20:   3117.19   0.000001    0.01  0.000000  ( 0.000031  0.000320 -0.000032)
 21:   3118.35   0.000002    0.01  0.000000  (-0.000013  0.000223  0.000410)
 22:   3140.16   0.009767   49.36  0.000971  ( 0.000818  0.030574 -0.005928)
 23:   3141.68   0.009591   48.47  0.000953  (-0.000717  0.006315  0.030205)

* The epsilon (eps) is given for a Dirac delta lineshape.
** The dipole moment derivative (T) already includes vibrational overlap.

The first frequency considered to be a vibration is 6
The total number of vibrations considered is 18


--------------------------
THERMOCHEMISTRY AT 298.15K
--------------------------

Temperature         ...   298.15 K
Pressure            ...     1.00 atm
Total Mass          ...    30.07 AMU
Quasi RRHO          ...     True
Cut-Off Frequency   ...     1.00 cm^-1

Throughout the following assumptions are being made:
  (1) The electronic state is orbitally nondegenerate
  (2) There are no thermally accessible electronically excited states
  (3) Hindered rotations indicated by low frequency modes are not
      treated as such but are treated as vibrations and this may
      cause some error
  (4) All equations used are the standard statistical mechanics
      equations for an ideal gas
  (5) All vibrations are strictly harmonic

freq.     305.12  E(vib)   ...       0.26 
freq.     824.26  E(vib)   ...       0.04 
freq.     824.85  E(vib)   ...       0.04 
freq.    1022.35  E(vib)   ...       0.02 
freq.    1220.59  E(vib)   ...       0.01 
freq.    1221.30  E(vib)   ...       0.01 
freq.    1407.84  E(vib)   ...       0.00 
freq.    1426.30  E(vib)   ...       0.00 
freq.    1507.06  E(vib)   ...       0.00 
freq.    1507.87  E(vib)   ...       0.00 
freq.    1509.95  E(vib)   ...       0.00 
freq.    1510.72  E(vib)   ...       0.00 
freq.    3060.60  E(vib)   ...       0.00 
freq.    3062.53  E(vib)   ...       0.00 
freq.    3117.19  E(vib)   ...       0.00 
freq.    3118.35  E(vib)   ...       0.00 
freq.    3140.16  E(vib)   ...       0.00 
freq.    3141.68  E(vib)   ...       0.00 

------------
INNER ENERGY
------------

The inner energy is: U= E(el) + E(ZPE) + E(vib) + E(rot) + E(trans)
    E(el)   - is the total energy from the electronic structure calculation
              = E(kin-el) + E(nuc-el) + E(el-el) + E(nuc-nuc)
    E(ZPE)  - the the zero temperature vibrational energy from the frequency calculation
    E(vib)  - the the finite temperature correction to E(ZPE) due to population
              of excited vibrational states
    E(rot)  - is the rotational thermal energy
    E(trans)- is the translational thermal energy

Summary of contributions to the inner energy U:
Electronic energy                ...    -79.80691989 Eh
Zero point energy                ...      0.07501712 Eh      47.07 kcal/mol
Thermal vibrational correction   ...      0.00065449 Eh       0.41 kcal/mol
Thermal rotational correction    ...      0.00141627 Eh       0.89 kcal/mol
Thermal translational correction ...      0.00141627 Eh       0.89 kcal/mol
-----------------------------------------------------------------------
Total thermal energy                    -79.72841574 Eh


Summary of corrections to the electronic energy:
(perhaps to be used in another calculation)
Total thermal correction                  0.00348703 Eh       2.19 kcal/mol
Non-thermal (ZPE) correction              0.07501712 Eh      47.07 kcal/mol
-----------------------------------------------------------------------
Total correction                          0.07850415 Eh      49.26 kcal/mol


--------
ENTHALPY
--------

The enthalpy is H = U + kB*T
                kB is Boltzmann's constant
Total thermal energy              ...    -79.72841574 Eh 
Thermal Enthalpy correction       ...      0.00094421 Eh       0.59 kcal/mol
-----------------------------------------------------------------------
Total Enthalpy                    ...    -79.72747153 Eh


Note: Rotational entropy computed according to Herzberg 
Infrared and Raman Spectra, Chapter V,1, Van Nostrand Reinhold, 1945 
Point Group:  D3d, Symmetry Number:   6  
Rotational constants in cm-1:     2.702324     0.670016     0.670007 

Vibrational entropy computed according to the QRRHO of S. Grimme
Chem.Eur.J. 2012 18 9955 using a reference frequency of 100.0 cm-1


-------
ENTROPY
-------

The entropy contributions are T*S = T*(S(el)+S(vib)+S(rot)+S(trans))
     S(el)   - electronic entropy
     S(vib)  - vibrational entropy
     S(rot)  - rotational entropy
     S(trans)- translational entropy
The entropies will be listed as multiplied by the temperature to get
units of energy

Electronic entropy                ...      0.00000000 Eh      0.00 kcal/mol
Vibrational entropy               ...      0.00095490 Eh      0.60 kcal/mol
Rotational entropy                ...      0.00772786 Eh      4.85 kcal/mol
Translational entropy             ...      0.01716939 Eh     10.77 kcal/mol
-----------------------------------------------------------------------
Final entropy term                ...      0.02585215 Eh     16.22 kcal/mol

In case the symmetry of your molecule has not been determined correctly
or in case you have a reason to use a different symmetry number we print 
out the resulting rotational entropy values for sn=1,12:

 non-linear molecules -----------------------------------
|  sn= 1 | S(rot)=       0.00941961 Eh      5.91 kcal/mol|
|  sn= 2 | S(rot)=       0.00876515 Eh      5.50 kcal/mol|
|  sn= 3 | S(rot)=       0.00838232 Eh      5.26 kcal/mol|
|  sn= 4 | S(rot)=       0.00811069 Eh      5.09 kcal/mol|
|  sn= 5 | S(rot)=       0.00790001 Eh      4.96 kcal/mol|
|  sn= 6 | S(rot)=       0.00772786 Eh      4.85 kcal/mol|
|  sn= 7 | S(rot)=       0.00758232 Eh      4.76 kcal/mol|
|  sn= 8 | S(rot)=       0.00745624 Eh      4.68 kcal/mol|
|  sn= 9 | S(rot)=       0.00734503 Eh      4.61 kcal/mol|
|  sn=10 | S(rot)=       0.00724555 Eh      4.55 kcal/mol|
|  sn=11 | S(rot)=       0.00715556 Eh      4.49 kcal/mol|
|  sn=12 | S(rot)=       0.00707340 Eh      4.44 kcal/mol|
 linear molecules ---------------------------------------
|  Dinfh | S(rot)=       0.00570392 Eh      3.58 kcal/mol|
|  Cinfv | S(rot)=       0.00635838 Eh      3.99 kcal/mol|
 --------------------------------------------------------


-------------------
GIBBS FREE ENERGY
-------------------

The Gibbs free energy is G = H - T*S

Total enthalpy                    ...    -79.72747153 Eh 
Total entropy correction          ...     -0.02585215 Eh    -16.22 kcal/mol
-----------------------------------------------------------------------
Final Gibbs free energy         ...    -79.75332368 Eh

For completeness - the Gibbs free energy minus the electronic energy
G-E(el)                           ...      0.05359621 Eh     33.63 kcal/mol



--------------------------------
SUGGESTED CITATIONS FOR THIS RUN
--------------------------------

Below you find a list of papers that are relevant to this ORCA run
We neither can nor want to force you to cite these papers, but we appreciate if you do
You receive ORCA, which is the product of decades of hard work by many enthusiastic individuals, for free
The only thing we kindly ask in return is that you cite our papers,
We deeply appreciate it, if you show your appreciation for ORCA by not just citing the generic ORCA reference.

Please note that relegating all ORCA citations to the supporting information does *not* help us.
SI sections are not indexed - citations you put there will not count into any citation statistics
But we need these citations in order to attract the funding resources that allow us to do what we are doing

Therefore, if you are a happy ORCA user, please consider citing a few of the papers listed below in the main body of your paper

In addition to the list printed below, the program has created the file freq.bibtex that contains the list in bibtex format
You can import this file easily into all common literature databanks and citation aid programs

It goes without saying that in many instances, there are alternative algorithms to achieve similar
results as the ones you have gotten from ORCA. It is, of course, also the case that in some instances
ORCA just re-implements algorithms worked out by others. We are fully aware of that and we are also
fully appreciative of our colleagues work. Hence this citation list should not be read as indicating
that the listed papers, which are focused on our own work, are the only ones worth citing. It simply
meant to make it easier for users to cite ORCA specific papers. It is not a substitute for doing your
own literature research and citing the relevant literature in a scientifically appropriate manner.

List of essential papers. We consider these as the minimum necessary citations

  1. Neese, F.
     Software update: the ORCA program system, version 6.0
     WIRES Comput. Molec. Sci. 2025 15(1), e70019
     doi.org/10.1002/wcms.70019

List of papers to cite with high priority. The work reported in these papers was absolutely
necessary for this run to complete.
Our perspective: the developers of density functionals and basis sets usually get cited in chemistry papers
Good! But without the algorithms to do something with them, the functionals or basis sets would not do anything.
Hence, in our opinion, the algorithm design and method developments papers are equally worthy of getting cited

  1. Neese, F.
     An improvement of the resolution of the identity approximation for the formation of the Coulomb matrix
     J. Comp. Chem. 2003 24(14), 1740-1747
     doi.org/10.1002/jcc.10318
  2. Neese, F.; Wennmohs, F.; Hansen, A.; Becker, U.
     Efficient, approximate and parallel Hartree-Fock and hybrid DFT calculations. A 'chain-of-spheres' algorithm for the Hartree-Fock exchange
     Chem. Phys. 2009 356(1-3), 98-109
     doi.org/10.1016/j.chemphys.2008.10.036
  3. Helmich-Paris, B.; de Souza, B.; Neese, F.; Izsák, R.
     An improved chain of spheres for exchange algorithm
     J. Chem. Phys. 2021 155(10), 104109
     doi.org/10.1063/5.0058766
  4. Neese, F.
     The SHARK Integral Generation and Digestion System
     J. Comp. Chem. 2022 44(3), 381
     doi.org/10.1002/jcc.26942

List of suggested additional citations. These are papers that are important in the 'surrounding' of 
of this run, or papers that preceded the highly important papers. If you like your results we are grateful for a citation.

  1. Izsak, R.; Neese, F.
     An overlap fitted chain of spheres exchange method
     J. Chem. Phys. 2011 135 , 144105
     doi.org/10.1063/1.3646921
  2. Izsak, R.; Hansen, A.; Neese, F.
     The resolution of identity and chain of spheres approximations for the LPNO-CCSD singles Fock term
     Molec. Phys. 2012 110 , 2413-2417
     doi.org/10.1080/00268976.2012.687466
  3. Neese, F.
     The ORCA program system
     WIRES Comput. Molec. Sci. 2012 2(1), 73-78
     doi.org/10.1002/wcms.81
  4. Izsak, R.; Neese, F.; Klopper, W.
     Robust fitting techniques in the chain of spheres approximation to the Fock exchange: The role of the complementary space
     J. Chem. Phys. 2013 139 , 
     doi.org/10.1063/1.4819264
  5. Neese, F.
     Software update: the ORCA program system, version 4.0
     WIRES Comput. Molec. Sci. 2018 8(1), 1-6
     doi.org/10.1002/wcms.1327
  6. Neese, F.; Wennmohs, F.; Becker, U.; Riplinger, C.
     The ORCA quantum chemistry program package
     J. Chem. Phys. 2020 152(22), 224108
     doi.org/10.1063/5.0004608
  7. Neese, F.
     Software update: The ORCA program system—Version 5.0
     WIRES Comput. Molec. Sci. 2022 12(1), e1606
     doi.org/10.1002/wcms.1606

List of optional additional citations

  1. Neese, F.
     Approximate second-order SCF convergence for spin unrestricted wavefunctions
     Chem. Phys. Lett. 2000 325(1-3), 93-98
     doi.org/10.1016/s0009-2614(00)00662-x

Timings for individual modules:

Sum of individual times          ...      418.535 sec (=   6.976 min)
Startup calculation              ...       14.235 sec (=   0.237 min)   3.4 %
SCF iterations                   ...       43.490 sec (=   0.725 min)  10.4 %
Property calculations            ...        1.890 sec (=   0.032 min)   0.5 %
SCF Gradient evaluation          ...       21.448 sec (=   0.357 min)   5.1 %
Geometry relaxation              ...        0.010 sec (=   0.000 min)   0.0 %
Numerical frequency calculation  ...      337.461 sec (=   5.624 min)  80.6 %
                             ****ORCA TERMINATED NORMALLY****
TOTAL RUN TIME: 0 days 0 hours 6 minutes 51 seconds 395 msec
