
                                 *****************
                                 * O   R   C   A *
                                 *****************

                                            #,                                       
                                            ###                                      
                                            ####                                     
                                            #####                                    
                                            ######                                   
                                           ########,                                 
                                     ,,################,,,,,                         
                               ,,#################################,,                 
                          ,,##########################################,,             
                       ,#########################################, ''#####,          
                    ,#############################################,,   '####,        
                  ,##################################################,,,,####,       
                ,###########''''           ''''###############################       
              ,#####''   ,,,,##########,,,,          '''####'''          '####       
            ,##' ,,,,###########################,,,                        '##       
           ' ,,###''''                  '''############,,,                           
         ,,##''                                '''############,,,,        ,,,,,,###''
      ,#''                                            '''#######################'''  
     '                                                          ''''####''''         
             ,#######,   #######,   ,#######,      ##                                
            ,#'     '#,  ##    ##  ,#'     '#,    #''#        ,####,    ,#,          
            ##       ##  ##   ,#'  ##            #'  '#       #'       ,# #          
            ##       ##  #######   ##           ,######,      #####,      #          
            '#,     ,#'  ##    ##  '#,     ,#' ,#      #,     #,   #      #          
             '#######'   ##     ##  '#######'  #'      '#     '####' #    #          



                #########################################################
                #                        -***-                          #
                #          Department of theory and spectroscopy        #
                #                                                       #
                #                      Frank Neese                      #
                #                                                       #
                #     Directorship, Architecture, Infrastructure        #
                #                    SHARK, DRIVERS                     #
                #        Core code/Algorithms in most modules           #
                #                                                       #
                #        Max Planck Institute fuer Kohlenforschung      #
                #                Kaiser Wilhelm Platz 1                 #
                #                 D-45470 Muelheim/Ruhr                 #
                #                      Germany                          #
                #                                                       #
                #                  All rights reserved                  #
                #                        -***-                          #
                #########################################################


                         Program Version 6.1.1  -  RELEASE   -
                                (GIT: $487d211c$)
                          ($2025-11-21 10:33:24 +0100$)


 With contributions from (in alphabetic order):
[Max-Planck-Institut fuer Kohlenforschung]                               
  Daniel Aravena         : Magnetic Suceptibility                        
  Michael Atanasov       : Ab Initio Ligand Field Theory (pilot matlab implementation)
  Alexander A. Auer      : GIAO ZORA, VPT2 properties, NMR spectrum      
  Ute Becker             : All parallelization in ORCA, NUMFREQ, NUMCALC 
  Giovanni Bistoni       : ED, misc. LED, open-shell LED, HFLD           
  Dmytro Bykov           : pre 5.0 version of the SCF Hessian            
  Marcos Casanova-Páez   : Triplet and SCS-CIS(D). UHF-(DLPNO)-IP/EA/STEOM-CCSD. UHF-CVS-IP/STEOM-CCSD   
  Vijay G. Chilkuri      : MRCI spin determinant printing, contributions to CSF-ICE 
  Pauline Colinet        : FMM embedding                                 
  Dipayan Datta          : RHF DLPNO-CCSD density                        
  Achintya Kumar Dutta   : EOM-CC, STEOM-CC                              
  Nicolas Foglia         : Exact transition moments, OPA infrastructure, MCD improvements    
  Dmitry Ganyushin       : Spin-Orbit,Spin-Spin,Magnetic field MRCI      
  Miquel Garcia-Rates    : C-PCM and meta-GGA Hessian, CCSD/C-PCM, Gaussian charge scheme 
  Tiago L. C. Gouveia    : GS-ROHF, GS-ROCIS                             
  Yang Guo               : DLPNO-NEVPT2, F12-NEVPT2, CIM, IAO-localization        
  Andreas Hansen         : Spin unrestricted coupled pair/coupled cluster methods 
  Ingolf Harden          : AUTO-CI MPn and infrastructure                
  Benjamin Helmich-Paris : MC-RPA, TRAH-(SCF,CASSCF), AVAS, COSX integrals, SCF dyn. polar., MC-PDFT, srDFT 
  Lee Huntington         : MR-EOM, pCC                                   
  Robert Izsak           : Overlap fitted RIJCOSX, COSX-SCS-MP3, EOM     
  Riya Kayal             : Wick's Theorem for AUTO-CI, AUTO-CI UHF-CCSDT 
  Emily Kempfer          : AUTO-CI RHF CISDT and CCSDT, approximate NEVPT4
  Christian Kollmar      : KDIIS, OOCD, Brueckner-CCSD(T), CCSD density, CASPT2, CASPT2-K, improved NEVPT2 
  Axel Koslowski         : Symmetry handling                             
  Simone Kossmann        : meta-GGA functionals, TD-DFT gradient, OOMP2, (MP2 Hessian; deprecated post 5.0) 
  Lucas Lang             : DCDCAS, Hyperfine gauge corrections, ICE-SOC+SSC
  Marvin Lechner         : AUTO-CI (C++ implementation), FIC-MRCC        
  Spencer Leger          : CASSCF response                               
  Dagmar Lenk            : GEPOL surface, SMD, ORCA-2-JSON               
  Dimitrios Liakos       : Extrapolation schemes; Compound Job, Property file
  Dimitrios Manganas     : Further ROCIS development; embedding schemes. LFT, Crystal Embedding 
  Dimitrios Pantazis     : SARC Basis sets                               
  Anastasios Papadopoulos: AUTO-CI, single reference methods and gradients 
  Taras Petrenko         : pre 6.0 DFT Hessian and TD-DFT gradient,  ECA, NRVS 
  Petra Pikulova         : Analytic Raman intensities                    
  Peter Pinski           : DLPNO-MP2, DLPNO-MP2 Gradient                 
  Shashank Vittal Rao    : ES-AILFT, MagRelax                            
  Christoph Reimann      : Effective Core Potentials                     
  Marius Retegan         : Local ZFS, SOC                                
  Christoph Riplinger    : Optimizer, TS searches, QM/MM, DLPNO-CCSD(T), (RO)-DLPNO pert. Triples 
  Michael Roemelt        : Original ROCIS implementation, recursive CI coupling coefficients
  Masaaki Saitow         : Open-shell DLPNO-CCSD energy and density      
  Barbara Sandhoefer     : DKH picture change effects                    
  Yorick L. A. Schmerwitz: GMF and freeze-and-release deltaSCF, NEB S-IDPP initial path                    
  Kantharuban Sivalingam : CASSCF convergence/infrastructure, NEVPT2, NEVPT3, NEVPT4(SD), FIC-MRCI and CEPA variants
  Bernardo de Souza      : ESD, SOC TD-DFT                               
  Georgi L. Stoychev     : AutoAux, RI-MP2 NMR, DLPNO-MP2 response, X2C  
  Van Anh Tran           : RI-MP2 g-tensors                              
  Willem Van den Heuvel  : Paramagnetic NMR                              
  Zikuan Wang            : NOTCH, Electric field optimization            
  Frank Wennmohs         : Technical directorship and infrastructure     
  Hang Xu                : AUTO-CI-Response properties                   
                                                                         
[FACCTs GmbH]                                                            
  Markus Bursch, Nicolas Foglia, Miquel Garcia-Rates, Ingolf Harden, Hagen Neugebauer, Anastasios Papadopoulos, 
  Christoph Riplinger, Bernardo de Souza, Georgi L. Stoychev                                                    
                                                                 
  APM, various basis sets, CI-OPT, improved COSX, DLPNO-Multilevel,           
  DOCKER, DRACO, updates on ESD, Fragmentator, GOAT, IRC, LR-CPCM, L-BFGS, MBIS, meta-GGA TD-DFT gradient, ML-optimized integration grids, 
  MM, NACMEs, nearIR, NEB, NEB-TS, NL-DFT gradient (VV10), 2- and 3-layer-ONIOM, interface openCOSMO-RS, QMMM,   
  Crystal-QMMM, RESP, rigid body optimization, SF, symmetry and pop. for TD-DFT, various functionals, SOLVATOR                                   
                                                                         
[Other institutions]                                                     
  V. Asgeirsson          : NEB                                           
  Christoph Bannwarth    : sTDA-DFT, sTD-DFT, PBEh-3c, B97-3c, D3        
  Giovanni Bistoni       : ETS/NOCV, ADLD/ADEX, COVALED                  
  Martin Brehm           : Molecular dynamics                            
  Ronald Cardenas        : ETS/NOCV                                      
  Martina Colucci        : COVALED                                       
  Sebastian Ehlert       : rSCAN, r2SCAN, r2SCAN-3c, D4, dhf basis sets  
  Marvin Friede          : D4 for Fr, Ra, Ac-Lr                          
  Lars Goerigk           : TD-DFT with DH, B97 family of functionals     
  Stefan Grimme          : VdW corrections, initial TS optimization, DFT functionals, gCP, sTDA/sTD-DF 
  Waldemar Hujo          : DFT-NL                                        
  H. Jonsson             : NEB                                           
  Holger Kruse           : gCP                                           
  Marcel Mueller         : wB97X-3c, vDZP basis set                      
  Hagen Neugebauer       : wr2SCAN, Native XTB                           
  Gianluca Regni         : ADLD/ADEX                                     
  Tobias Risthaus        : pre 6.0 range-separated hybrid DFT and stability analysis
  Lukas Wittmann         : regularized MP2, r2SCAN double-hybrids, wr2SCAN        
                                                                         
We gratefully acknowledge several colleagues who have allowed us to      
interface, adapt or use parts of their codes:                            
  Ed Valeev, F. Pavosevic, A. Kumar             : LibInt (2-el integral package), F12 methods 
  Garnet Chan, S. Sharma, J. Yang, R. Olivares  : DMRG                   
  Ulf Ekstrom                                   : XCFun DFT Library      
  Mihaly Kallay                                 : mrcc  (arbitrary order and MRCC methods)
  Frank Weinhold                                : gennbo (NPA and NBO analysis)           
  Simon Mueller                                 : openCOSMO-RS                            
  Christopher J. Cramer and Donald G. Truhlar   : smd solvation model                     
  S Lehtola, MJT Oliveira, MAL Marques          : LibXC Library                           
  Liviu Ungur et al                             : ANISO software                          


 Your calculation uses the libint2 library for the computation of 2-el integrals
 For citations please refer to: http://libint.valeyev.net

 Your ORCA version has been built with support for libXC version: 7.0.0
 For citations please refer to: https://libxc.gitlab.io

 This ORCA versions uses:
   CBLAS   interface :  Fast vector & matrix operations
   LAPACKE interface :  Fast linear algebra routines
   SCALAPACK package :  Parallel linear algebra routines
   Shared memory     :  Shared parallel matrices
   BLAS/LAPACK       :  OpenBLAS 0.3.29  USE64BITINT DYNAMIC_ARCH NO_AFFINITY SkylakeX SINGLE_THREADED
        Core in use  :  SkylakeX
   Copyright (c) 2011-2014, The OpenBLAS Project


  ***********************************
  * Starting time: Wed Mar 18 21:01:11 2026
  * Host name:     c5-9
  * Process ID:    1484518
  * Working dir.:  /tmp/lscratch/tns97255/orca_43703212
  ***********************************

NOTE: MaxCore=4000 MB was set to SCF,MP2,MDCI,CIPSI,MRCI,RASCI and CIS
      => If you want to overwrite this, your respective input block should be placed after the MaxCore statement


***************************************
The coordinates will be read from file: guess.xyz
***************************************


Your calculation utilizes the semiempirical GFN2-xTB method
Please cite in your paper:
Bannwarth, C.; Ehlert S.; Grimme, S. J. Chem. Theory Comput. 2019, 15, 1652.
   

================================================================================

================================================================================
                                        WARNINGS
                       Please study these warnings very carefully!
================================================================================


================================================================================
 STARTING AUTOMATIC FRAGMENTATION: 
================================================================================

WARNING: Geometry Optimization
  ===> : Switching off AutoStart
         For restart on a previous wavefunction, please use MOREAD

WARNING: Found dipole moment calculation with XTB calculation
  ===> : Switching off dipole moment calculation


================================================================================
                                       INPUT FILE
================================================================================
NAME = goat.inp
|  1> %PAL NPROCS 8 END
|  2> %MAXCORE 4000
|  3> %base "goat"
|  4> ! XTB GOAT
|  5> 
|  6> *xyzfile 0 1 guess.xyz
|  7> 
|  8>                          ****END OF INPUT****
================================================================================

                       *****************************
                       * Geometry Optimization Run *
                       *****************************


                       *********************************
                       *              GOAT             *
                       * Global Optimization Algorithm *
                       *********************************

Geometry optimization settings:
Update method            Update   .... BFGS
Choice of coordinates    CoordSys .... (2022) Redundant Internals
Initial Hessian          InHess   .... Almloef's Model
Max. no of cycles        MaxIter  .... 50

Convergence Tolerances:
Energy Change            TolE     ....  5.0000e-06 Eh
Max. Gradient            TolMAXG  ....  3.0000e-04 Eh/bohr
RMS Gradient             TolRMSG  ....  1.0000e-04 Eh/bohr
Max. Displacement        TolMAXD  ....  4.0000e-03 bohr
RMS Displacement         TolRMSD  ....  2.0000e-03 bohr
Strict Convergence                .... True

------------------------------------------------------------------------------
                        ORCA OPTIMIZATION COORDINATE SETUP
------------------------------------------------------------------------------

The optimization will be done in redundant internal coordinates (2022)
Making redundant internal coordinates   ...  (2022 redundants) done
Evaluating the initial hessian          ...  (Almloef) done
Evaluating the coordinates              ...  done
Calculating the B-matrix                .... done
Calculating the G-matrix                .... done
The number of degrees of freedom        ....   25

    -----------------------------------------------------------------
                    Redundant Internal Coordinates


    -----------------------------------------------------------------
         Definition                    Initial Value    Approx d2E/dq
    -----------------------------------------------------------------
      1. B(C   1,C   0)                  1.4972         0.421389   
      2. B(H   2,C   0)                  1.1135         0.330269   
      3. B(H   3,C   0)                  1.1197         0.322842   
      4. B(H   4,C   0)                  1.1237         0.318110   
      5. B(H   5,C   1)                  1.1214         0.320908   
      6. B(H   6,C   1)                  1.0952         0.353290   
      7. B(H   7,C   1)                  1.1189         0.323839   
      8. A(H   2,C   0,H   4)          104.7516         0.281450   
      9. A(C   1,C   0,H   4)          111.5464         0.324130   
     10. A(C   1,C   0,H   2)          113.9538         0.326135   
     11. A(H   3,C   0,H   4)          104.2771         0.280462   
     12. A(H   2,C   0,H   3)          108.9439         0.282094   
     13. A(C   1,C   0,H   3)          112.6463         0.324917   
     14. A(C   0,C   1,H   5)          107.6427         0.324596   
     15. A(H   6,C   1,H   7)          110.0252         0.285199   
     16. A(H   5,C   1,H   7)          105.1976         0.280976   
     17. A(C   0,C   1,H   7)          112.8271         0.325082   
     18. A(H   5,C   1,H   6)          105.4782         0.284796   
     19. A(C   0,C   1,H   6)          114.9021         0.329779   
     20. D(H   5,C   1,C   0,H   3)   -124.8084         0.014047   
     21. D(H   5,C   1,C   0,H   4)     -7.9349         0.014047   
     22. D(H   6,C   1,C   0,H   2)     -6.7316         0.014047   
     23. D(H   6,C   1,C   0,H   3)    118.0371         0.014047   
     24. D(H   6,C   1,C   0,H   4)   -125.0894         0.014047   
     25. D(H   5,C   1,C   0,H   2)    110.4228         0.014047   
    -----------------------------------------------------------------

Number of atoms                         .... 8
Number of degrees of freedom            .... 25


         *************************************************************
         *                GEOMETRY OPTIMIZATION CYCLE   1            *
         *************************************************************
---------------------------------
CARTESIAN COORDINATES (ANGSTROEM)
---------------------------------
  C    -0.740124    0.018485   -0.046094
  C     0.756763    0.006073   -0.017288
  H    -1.178220    0.993316   -0.358739
  H    -1.165738   -0.794010   -0.688356
  H    -1.174127   -0.176933    0.971878
  H     1.075552   -0.053267    1.056171
  H     1.233141    0.908847   -0.414176
  H     1.192754   -0.902512   -0.503397

----------------------------
CARTESIAN COORDINATES (A.U.)
----------------------------
  NO LB    ZA    FRAG    MASS        X           Y           Z
   0 C   6.0000    1    12.011   -1.398632    0.034932   -0.087105
   1 C   6.0000    1    12.011    1.430075    0.011476   -0.032670
   2 H   1.0000    1     1.008   -2.226513    1.877095   -0.677918
   3 H   1.0000    1     1.008   -2.202926   -1.500461   -1.300804
   4 H   1.0000    1     1.008   -2.218778   -0.334355    1.836583
   5 H   1.0000    1     1.008    2.032499   -0.100660    1.995874
   6 H   1.0000    1     1.008    2.330299    1.717472   -0.782679
   7 H   1.0000    1     1.008    2.253978   -1.705501   -0.951282

      -----------------------------------------------------------      
     |                   =====================                   |     
     |                           x T B                           |     
     |                   =====================                   |     
     |                         S. Grimme                         |     
     |          Mulliken Center for Theoretical Chemistry        |     
     |                    University of Bonn                     |     
      -----------------------------------------------------------      

   * xtb version 6.7.1 (edcfbbe) compiled by 'albert@albert-system' on 2024-07-22

   xtb is free software: you can redistribute it and/or modify it under
   the terms of the GNU Lesser General Public License as published by
   the Free Software Foundation, either version 3 of the License, or
   (at your option) any later version.
   
   xtb is distributed in the hope that it will be useful,
   but WITHOUT ANY WARRANTY; without even the implied warranty of
   MERCHANTABILITY or FITNESS FOR A PARTICULAR PURPOSE.  See the
   GNU Lesser General Public License for more details.
   
   Cite this work as:
   * C. Bannwarth, E. Caldeweyher, S. Ehlert, A. Hansen, P. Pracht,
     J. Seibert, S. Spicher, S. Grimme, WIREs Comput. Mol. Sci., 2020, 11,
     e01493. DOI: 10.1002/wcms.1493
   
   for GFN2-xTB:
   * C. Bannwarth, S. Ehlert and S. Grimme., J. Chem. Theory Comput., 2019,
     15, 1652-1671. DOI: 10.1021/acs.jctc.8b01176
   for GFN1-xTB:
   * S. Grimme, C. Bannwarth, P. Shushkov, J. Chem. Theory Comput., 2017,
     13, 1989-2009. DOI: 10.1021/acs.jctc.7b00118
   for GFN0-xTB:
   * P. Pracht, E. Caldeweyher, S. Ehlert, S. Grimme, ChemRxiv, 2019, preprint.
     DOI: 10.26434/chemrxiv.8326202.v1
   for GFN-FF:
   * S. Spicher and S. Grimme, Angew. Chem. Int. Ed., 2020, 59, 15665-15673.
     DOI: 10.1002/anie.202004239
   
   for ALPB and GBSA implicit solvation:
   * S. Ehlert, M. Stahn, S. Spicher, S. Grimme, J. Chem. Theory Comput.,
     2021, 17, 4250-4261. DOI: 10.1021/acs.jctc.1c00471
   
   for ddCOSMO and CPCM-X implicit solvation:
   * M. Stahn, S. Ehlert, S. Grimme, J. Phys. Chem. A,
     2023, XX, XXXX-XXXX. DOI: 10.1021/acs.jpca.3c04382
   
   for DFT-D4:
   * E. Caldeweyher, C. Bannwarth and S. Grimme, J. Chem. Phys., 2017,
     147, 034112. DOI: 10.1063/1.4993215
   * E. Caldeweyher, S. Ehlert, A. Hansen, H. Neugebauer, S. Spicher,
     C. Bannwarth and S. Grimme, J. Chem. Phys., 2019, 150, 154122.
     DOI: 10.1063/1.5090222
   * E. Caldeweyher, J.-M. Mewes, S. Ehlert and S. Grimme, Phys. Chem. Chem. Phys.
     2020, 22, 8499-8512. DOI: 10.1039/D0CP00502A
   
   for sTDA-xTB:
   * S. Grimme and C. Bannwarth, J. Chem. Phys., 2016, 145, 054103.
     DOI: 10.1063/1.4959605
   
   in the mass-spec context:
   * V. Asgeirsson, C. Bauer and S. Grimme, Chem. Sci., 2017, 8, 4879.
     DOI: 10.1039/c7sc00601b
   * J. Koopman and S. Grimme, ACS Omega 2019, 4, 12, 15120-15133.
     DOI: 10.1021/acsomega.9b02011
   
   for metadynamics refer to:
   * S. Grimme, J. Chem. Theory Comput., 2019, 155, 2847-2862
     DOI: 10.1021/acs.jctc.9b00143
   
   for SPH calculations refer to:
   * S. Spicher and S. Grimme, J. Chem. Theory Comput., 2021, 17, 1701-1714
     DOI: 10.1021/acs.jctc.0c01306
   
   for ONIOM refer to:
   * C. Plett, A. Katbashev, S. Ehlert, S. Grimme, M. Bursch,
     Phys. Chem. Chem. Phys., 2023, 25, 17860-17868. DOI: 10.1039/D3CP02178E
   
   for DIPRO refer to:
   * J. Kohn, N. Gildemeister, S. Grimme, D. Fazzi, A. Hansen,
     J. Chem. Phys., 2023, just accepted.
   
   for PTB refer to:
   * S. Grimme, M. Mueller, A. Hansen, J. Chem. Phys., 2023, 158, 124111.
     DOI: 10.1063/5.0137838
   
   with help from (in alphabetical order)
   P. Atkinson, C. Bannwarth, F. Bohle, G. Brandenburg, E. Caldeweyher
   M. Checinski, S. Dohm, S. Ehlert, S. Ehrlich, I. Gerasimov, C. Hölzer
   A. Katbashev, J. Kohn, J. Koopman, C. Lavigne, S. Lehtola, F. März, M. Müller,
   F. Musil, H. Neugebauer, J. Pisarek, C. Plett, P. Pracht, F. Pultar,
   J. Seibert, P. Shushkov, S. Spicher, M. Stahn, M. Steiner, T. Strunk,
   J. Stückrath, T. Rose, and J. Unsleber
   
 * started run on 2026/03/18 at 21:01:13.897     
   ID    Z sym.   atoms
    1    6 C      1, 2
    2    1 H      3-8

           -------------------------------------------------
          |                Calculation Setup                |
           -------------------------------------------------

          program call               : /apps/eb/ORCA/6.1.1-gompi-2024a-avx2/bin/otool_xtb goat_XTB.xyz --grad -c 0 -u 0 -P 8 --namespace goat --input goat_XTB.input.tmp --acc 0.200000
          hostname                   : c5-9
          calculation namespace      : goat
          coordinate file            : goat_XTB.xyz
          omp threads                :                     8


           -------------------------------------------------
          |                 G F N 2 - x T B                 |
           -------------------------------------------------

        Reference                      10.1021/acs.jctc.8b01176
      * Hamiltonian:
        H0-scaling (s, p, d)           1.850000    2.230000    2.230000
        zeta-weighting                 0.500000
      * Dispersion:
        s8                             2.700000
        a1                             0.520000
        a2                             5.000000
        s9                             5.000000
      * Repulsion:
        kExp                           1.500000    1.000000
        rExp                           1.000000
      * Coulomb:
        alpha                          2.000000
        third order                    shell-resolved
        anisotropic                    true
        a3                             3.000000
        a5                             4.000000
        cn-shift                       1.200000
        cn-exp                         4.000000
        max-rad                        5.000000


          ...................................................
          :                      SETUP                      :
          :.................................................:
          :  # basis functions                  14          :
          :  # atomic orbitals                  14          :
          :  # shells                           10          :
          :  # electrons                        14          :
          :  max. iterations                   250          :
          :  Hamiltonian                  GFN2-xTB          :
          :  restarted?                      false          :
          :  GBSA solvation                  false          :
          :  PC potential                    false          :
          :  electronic temp.          300.0000000     K    :
          :  accuracy                    0.2000000          :
          :  -> integral cutoff          0.3198970E+02      :
          :  -> integral neglect         0.2000000E-08      :
          :  -> SCF convergence          0.2000000E-06 Eh   :
          :  -> wf. convergence          0.2000000E-04 e    :
          :  Broyden damping             0.4000000          :
          :  net charge                          0          :
          :  unpaired electrons                  0          :
          ...................................................

 iter      E             dE          RMSdq      gap      omega  full diag
   1     -7.4002415 -0.740024E+01  0.274E+00   14.13       0.0  T
   2     -7.4277785 -0.275369E-01  0.137E+00   14.01       1.0  T
   3     -7.4279645 -0.186029E-03  0.757E-01   13.92       1.0  T
   4     -7.4280468 -0.822983E-04  0.983E-02   13.82       1.0  T
   5     -7.4280468  0.599081E-08  0.806E-03   13.82       4.4  T
   6     -7.4280469 -0.134720E-06  0.194E-03   13.82      18.3  T
   7     -7.4280469 -0.146239E-08  0.689E-04   13.82      51.3  T
   8     -7.4280469 -0.977263E-10  0.158E-04   13.82     224.0  T
   9     -7.4280469 -0.659561E-11  0.335E-06   13.82   10566.7  T

   *** convergence criteria satisfied after 9 iterations ***

         #    Occupation            Energy/Eh            Energy/eV
      -------------------------------------------------------------
         1        2.0000           -0.6037094             -16.4278
         2        2.0000           -0.5607291             -15.2582
         3        2.0000           -0.4962167             -13.5027
         4        2.0000           -0.4928785             -13.4119
         5        2.0000           -0.4658762             -12.6771
         6        2.0000           -0.4343279             -11.8187
         7        2.0000           -0.4257564             -11.5854 (HOMO)
         8                          0.0822587               2.2384 (LUMO)
         9                          0.1110254               3.0212
        10                          0.1241140               3.3773
        11                          0.1466347               3.9901
        12                          0.2061598               5.6099
       ...                                ...                  ...
        14                          0.2813164               7.6550
      -------------------------------------------------------------
                  HL-Gap            0.5080150 Eh           13.8238 eV
             Fermi-level           -0.1717489 Eh           -4.6735 eV

 SCC (total)                   0 d,  0 h,  0 min,  0.034 sec
 SCC setup                      ...        0 min,  0.003 sec (  8.471%)
 Dispersion                     ...        0 min,  0.001 sec (  1.594%)
 classical contributions        ...        0 min,  0.000 sec (  0.564%)
 integral evaluation            ...        0 min,  0.002 sec (  4.534%)
 iterations                     ...        0 min,  0.026 sec ( 76.084%)
 molecular gradient             ...        0 min,  0.001 sec (  3.822%)
 printout                       ...        0 min,  0.002 sec (  4.762%)

         :::::::::::::::::::::::::::::::::::::::::::::::::::::
         ::                     SUMMARY                     ::
         :::::::::::::::::::::::::::::::::::::::::::::::::::::
         :: total energy              -7.327503474065 Eh    ::
         :: gradient norm              0.067947277222 Eh/a0 ::
         :: HOMO-LUMO gap             13.823792902249 eV    ::
         ::.................................................::
         :: SCC energy                -7.428046730046 Eh    ::
         :: -> isotropic ES            0.001673934140 Eh    ::
         :: -> anisotropic ES          0.003847862552 Eh    ::
         :: -> anisotropic XC          0.006049511119 Eh    ::
         :: -> dispersion             -0.002042969084 Eh    ::
         :: repulsion energy           0.100543255981 Eh    ::
         :: add. restraining           0.000000000000 Eh    ::
         :: total charge              -0.000000000000 e     ::
         :::::::::::::::::::::::::::::::::::::::::::::::::::::


Property printout bound to 'properties.out'

           -------------------------------------------------
          | TOTAL ENERGY               -7.327503474065 Eh   |
          | GRADIENT NORM               0.067947277222 Eh/α |
          | HOMO-LUMO GAP              13.823792902249 eV   |
           -------------------------------------------------

------------------------------------------------------------------------
 * finished run on 2026/03/18 at 21:01:14.021     
------------------------------------------------------------------------
 total:
 * wall-time:     0 d,  0 h,  0 min,  0.123 sec
 *  cpu-time:     0 d,  0 h,  0 min,  0.589 sec
 * ratio c/w:     4.804 speedup
 SCF:
 * wall-time:     0 d,  0 h,  0 min,  0.034 sec
 *  cpu-time:     0 d,  0 h,  0 min,  0.217 sec
 * ratio c/w:     6.334 speedup


-------------------------   --------------------
FINAL SINGLE POINT ENERGY        -7.327503474060
-------------------------   --------------------


-------------
DIPOLE MOMENT
-------------
                                X             Y             Z
Total Dipole Moment    :      0.00500       0.00200       0.02000
                        -----------------------------------------
Magnitude (a.u.)       :      0.02071
Magnitude (Debye)      :      0.05265


------------------
CARTESIAN GRADIENT
------------------

   1   C   :    0.039408749    0.005001228   -0.004256897
   2   C   :   -0.028210580    0.012086214   -0.020279636
   3   H   :   -0.008342852    0.013907856   -0.000320347
   4   H   :   -0.007598686   -0.016136683   -0.006027034
   5   H   :   -0.008707398   -0.003016636    0.015804730
   6   H   :    0.000457280   -0.001362222    0.016297024
   7   H   :    0.005309997    0.006556350    0.003019172
   8   H   :    0.007683489   -0.017036107   -0.004237011

Difference to translation invariance:
           :    0.0000000000    0.0000000000    0.0000000000

Difference to rotation invariance:
           :    0.0000000000   -0.0000000003    0.0000000003

Norm of the Cartesian gradient     ...    0.0679472772
RMS gradient                       ...    0.0138696799
MAX gradient                       ...    0.0394087487
------------------------------------------------------------------------------
                         ORCA GEOMETRY RELAXATION STEP
------------------------------------------------------------------------------

Reading the OPT-File                    .... done
Getting information on internals        .... done
Copying old internal coords+grads       .... done
Making the new internal coordinates     .... (2022 redundants) done
Validating the new internal coordinates .... (2022 redundants) done
Calculating the B-matrix                .... done
Calculating the G,G- and P matrices     .... done
Transforming gradient to internals      .... done
Projecting the internal gradient        .... done
Number of atoms                         ....   8
Number of internal coordinates          ....  25
Current Energy                          ....    -7.327503474 Eh
Current gradient norm                   ....     0.067947277 Eh/bohr
Maximum allowed component of the step   ....  0.300
Current trust radius                    ....  0.300
Evaluating the initial hessian          ....  (Almloef) done
Projecting the Hessian                  .... done
Forming the augmented Hessian           .... done
Diagonalizing the augmented Hessian     .... done
Last element of RFO vector              ....  0.987360853
Lowest eigenvalues of augmented Hessian:
 -0.006746797  0.014104112  0.104618122  0.120792698  0.129174720
Length of the computed step             ....  0.160517113
The final length of the internal step   ....  0.160517113
Converting the step to Cartesian space:
 Initial RMS(Int)=    0.0321034226
Transforming coordinates:
 Iter   0:  RMS(Cart)=    0.0310726054 RMS(Int)=    0.0320564884
done
Storing new coordinates                 .... done

                                .--------------------.
          ----------------------|Geometry convergence|-------------------------
          Item                value                   Tolerance       Converged
          ---------------------------------------------------------------------
          RMS gradient        0.0092374752            0.0001000000      NO
          MAX gradient        0.0186687844            0.0003000000      NO
          RMS step            0.0321034226            0.0020000000      NO
          MAX step            0.0587559200            0.0040000000      NO
          -------------------------------------------------------------------------
          ........................................................
          Max(Bonds)      0.0299      Max(Angles)    2.26
          Max(Dihed)        3.37      Max(Improp)    0.00
          ---------------------------------------------------------------------

    ---------------------------------------------------------------------------
                         Redundant Internal Coordinates
                            (Angstroem and degrees)

        Definition                    Value    dE/dq     Step     New-Value
    ----------------------------------------------------------------------------
     1. B(C   1,C   0)                1.4972 -0.014859  0.0184    1.5156   
     2. B(H   2,C   0)                1.1135  0.015548 -0.0244    1.0891   
     3. B(H   3,C   0)                1.1197  0.018054 -0.0290    1.0907   
     4. B(H   4,C   0)                1.1237  0.018205 -0.0297    1.0941   
     5. B(H   5,C   1)                1.1214  0.015803 -0.0255    1.0958   
     6. B(H   6,C   1)                1.0952  0.006620 -0.0097    1.0855   
     7. B(H   7,C   1)                1.1189  0.018669 -0.0299    1.0890   
     8. A(H   2,C   0,H   4)          104.75 -0.003577    1.00    105.75   
     9. A(C   1,C   0,H   4)          111.55  0.000187    0.35    111.90   
    10. A(C   1,C   0,H   2)          113.95  0.003828   -0.93    113.02   
    11. A(H   3,C   0,H   4)          104.28 -0.003197    1.17    105.44   
    12. A(H   2,C   0,H   3)          108.94  0.001309   -1.05    107.90   
    13. A(C   1,C   0,H   3)          112.65  0.000583   -0.28    112.37   
    14. A(C   0,C   1,H   5)          107.64 -0.011975    2.26    109.91   
    15. A(H   6,C   1,H   7)          110.03  0.005133   -1.35    108.68   
    16. A(H   5,C   1,H   7)          105.20 -0.005755    0.85    106.04   
    17. A(C   0,C   1,H   7)          112.83  0.001809   -0.62    112.20   
    18. A(H   5,C   1,H   6)          105.48 -0.000253    0.73    106.21   
    19. A(C   0,C   1,H   6)          114.90  0.008846   -1.41    113.49   
    20. D(H   5,C   1,C   0,H   3)   -124.81  0.001803   -1.74   -126.55   
    21. D(H   5,C   1,C   0,H   4)     -7.93 -0.001737   -0.22     -8.15   
    22. D(H   6,C   1,C   0,H   2)     -6.73 -0.000343   -0.94     -7.67   
    23. D(H   6,C   1,C   0,H   3)    118.04  0.005053   -3.37    114.67   
    24. D(H   6,C   1,C   0,H   4)   -125.09  0.001512   -1.84   -126.93   
    25. D(H   5,C   1,C   0,H   2)    110.42 -0.003592    0.68    111.10   
    ----------------------------------------------------------------------------

Geometry step timings:
Preparation and reading OPT file:      0.000 s ( 1.905 %)
Internal coordinates            :      0.000 s ( 1.482 %)
B/P matrices and projection     :      0.000 s (13.633 %)
Hessian update/contruction      :      0.000 s (18.247 %)
Making the step                 :      0.001 s (40.771 %)
Converting the step to Cartesian:      0.000 s ( 2.837 %)
Storing new data                :      0.000 s ( 2.540 %)
Checking convergence            :      0.000 s ( 2.202 %)
Final printing                  :      0.000 s (16.257 %)
Total time                      :      0.002 s

Time for energy+gradient        :      0.144 s
Time for complete geometry iter :      0.148 s

         *************************************************************
         *                GEOMETRY OPTIMIZATION CYCLE   2            *
         *************************************************************
---------------------------------
CARTESIAN COORDINATES (ANGSTROEM)
---------------------------------
  C    -0.752999    0.012221   -0.035516
  C     0.761995   -0.000932    0.004582
  H    -1.161930    0.967298   -0.362323
  H    -1.157521   -0.765066   -0.685059
  H    -1.188896   -0.175865    0.950213
  H     1.107171   -0.053033    1.043337
  H     1.213519    0.889887   -0.420632
  H     1.178662   -0.874511   -0.494602

----------------------------
CARTESIAN COORDINATES (A.U.)
----------------------------
  NO LB    ZA    FRAG    MASS        X           Y           Z
   0 C   6.0000    1    12.011   -1.422961    0.023095   -0.067116
   1 C   6.0000    1    12.011    1.439961   -0.001761    0.008658
   2 H   1.0000    1     1.008   -2.195729    1.827927   -0.684691
   3 H   1.0000    1     1.008   -2.187397   -1.445765   -1.294574
   4 H   1.0000    1     1.008   -2.246689   -0.332336    1.795642
   5 H   1.0000    1     1.008    2.092250   -0.100218    1.971621
   6 H   1.0000    1     1.008    2.293218    1.681643   -0.794879
   7 H   1.0000    1     1.008    2.227348   -1.652587   -0.934662

      -----------------------------------------------------------      
     |                   =====================                   |     
     |                           x T B                           |     
     |                   =====================                   |     
     |                         S. Grimme                         |     
     |          Mulliken Center for Theoretical Chemistry        |     
     |                    University of Bonn                     |     
      -----------------------------------------------------------      

   * xtb version 6.7.1 (edcfbbe) compiled by 'albert@albert-system' on 2024-07-22

   xtb is free software: you can redistribute it and/or modify it under
   the terms of the GNU Lesser General Public License as published by
   the Free Software Foundation, either version 3 of the License, or
   (at your option) any later version.
   
   xtb is distributed in the hope that it will be useful,
   but WITHOUT ANY WARRANTY; without even the implied warranty of
   MERCHANTABILITY or FITNESS FOR A PARTICULAR PURPOSE.  See the
   GNU Lesser General Public License for more details.
   
   Cite this work as:
   * C. Bannwarth, E. Caldeweyher, S. Ehlert, A. Hansen, P. Pracht,
     J. Seibert, S. Spicher, S. Grimme, WIREs Comput. Mol. Sci., 2020, 11,
     e01493. DOI: 10.1002/wcms.1493
   
   for GFN2-xTB:
   * C. Bannwarth, S. Ehlert and S. Grimme., J. Chem. Theory Comput., 2019,
     15, 1652-1671. DOI: 10.1021/acs.jctc.8b01176
   for GFN1-xTB:
   * S. Grimme, C. Bannwarth, P. Shushkov, J. Chem. Theory Comput., 2017,
     13, 1989-2009. DOI: 10.1021/acs.jctc.7b00118
   for GFN0-xTB:
   * P. Pracht, E. Caldeweyher, S. Ehlert, S. Grimme, ChemRxiv, 2019, preprint.
     DOI: 10.26434/chemrxiv.8326202.v1
   for GFN-FF:
   * S. Spicher and S. Grimme, Angew. Chem. Int. Ed., 2020, 59, 15665-15673.
     DOI: 10.1002/anie.202004239
   
   for ALPB and GBSA implicit solvation:
   * S. Ehlert, M. Stahn, S. Spicher, S. Grimme, J. Chem. Theory Comput.,
     2021, 17, 4250-4261. DOI: 10.1021/acs.jctc.1c00471
   
   for ddCOSMO and CPCM-X implicit solvation:
   * M. Stahn, S. Ehlert, S. Grimme, J. Phys. Chem. A,
     2023, XX, XXXX-XXXX. DOI: 10.1021/acs.jpca.3c04382
   
   for DFT-D4:
   * E. Caldeweyher, C. Bannwarth and S. Grimme, J. Chem. Phys., 2017,
     147, 034112. DOI: 10.1063/1.4993215
   * E. Caldeweyher, S. Ehlert, A. Hansen, H. Neugebauer, S. Spicher,
     C. Bannwarth and S. Grimme, J. Chem. Phys., 2019, 150, 154122.
     DOI: 10.1063/1.5090222
   * E. Caldeweyher, J.-M. Mewes, S. Ehlert and S. Grimme, Phys. Chem. Chem. Phys.
     2020, 22, 8499-8512. DOI: 10.1039/D0CP00502A
   
   for sTDA-xTB:
   * S. Grimme and C. Bannwarth, J. Chem. Phys., 2016, 145, 054103.
     DOI: 10.1063/1.4959605
   
   in the mass-spec context:
   * V. Asgeirsson, C. Bauer and S. Grimme, Chem. Sci., 2017, 8, 4879.
     DOI: 10.1039/c7sc00601b
   * J. Koopman and S. Grimme, ACS Omega 2019, 4, 12, 15120-15133.
     DOI: 10.1021/acsomega.9b02011
   
   for metadynamics refer to:
   * S. Grimme, J. Chem. Theory Comput., 2019, 155, 2847-2862
     DOI: 10.1021/acs.jctc.9b00143
   
   for SPH calculations refer to:
   * S. Spicher and S. Grimme, J. Chem. Theory Comput., 2021, 17, 1701-1714
     DOI: 10.1021/acs.jctc.0c01306
   
   for ONIOM refer to:
   * C. Plett, A. Katbashev, S. Ehlert, S. Grimme, M. Bursch,
     Phys. Chem. Chem. Phys., 2023, 25, 17860-17868. DOI: 10.1039/D3CP02178E
   
   for DIPRO refer to:
   * J. Kohn, N. Gildemeister, S. Grimme, D. Fazzi, A. Hansen,
     J. Chem. Phys., 2023, just accepted.
   
   for PTB refer to:
   * S. Grimme, M. Mueller, A. Hansen, J. Chem. Phys., 2023, 158, 124111.
     DOI: 10.1063/5.0137838
   
   with help from (in alphabetical order)
   P. Atkinson, C. Bannwarth, F. Bohle, G. Brandenburg, E. Caldeweyher
   M. Checinski, S. Dohm, S. Ehlert, S. Ehrlich, I. Gerasimov, C. Hölzer
   A. Katbashev, J. Kohn, J. Koopman, C. Lavigne, S. Lehtola, F. März, M. Müller,
   F. Musil, H. Neugebauer, J. Pisarek, C. Plett, P. Pracht, F. Pultar,
   J. Seibert, P. Shushkov, S. Spicher, M. Stahn, M. Steiner, T. Strunk,
   J. Stückrath, T. Rose, and J. Unsleber
   
 * started run on 2026/03/18 at 21:01:14.044     
   ID    Z sym.   atoms
    1    6 C      1, 2
    2    1 H      3-8

           -------------------------------------------------
          |                Calculation Setup                |
           -------------------------------------------------

          program call               : /apps/eb/ORCA/6.1.1-gompi-2024a-avx2/bin/otool_xtb goat_XTB.xyz --grad -c 0 -u 0 -P 8 --namespace goat --input goat_XTB.input.tmp --acc 0.200000
          hostname                   : c5-9
          calculation namespace      : goat
          coordinate file            : goat_XTB.xyz
          omp threads                :                     8


           -------------------------------------------------
          |                 G F N 2 - x T B                 |
           -------------------------------------------------

        Reference                      10.1021/acs.jctc.8b01176
      * Hamiltonian:
        H0-scaling (s, p, d)           1.850000    2.230000    2.230000
        zeta-weighting                 0.500000
      * Dispersion:
        s8                             2.700000
        a1                             0.520000
        a2                             5.000000
        s9                             5.000000
      * Repulsion:
        kExp                           1.500000    1.000000
        rExp                           1.000000
      * Coulomb:
        alpha                          2.000000
        third order                    shell-resolved
        anisotropic                    true
        a3                             3.000000
        a5                             4.000000
        cn-shift                       1.200000
        cn-exp                         4.000000
        max-rad                        5.000000

q/qsh data taken from xtbrestart
CAMM data taken from xtbrestart

          ...................................................
          :                      SETUP                      :
          :.................................................:
          :  # basis functions                  14          :
          :  # atomic orbitals                  14          :
          :  # shells                           10          :
          :  # electrons                        14          :
          :  max. iterations                   250          :
          :  Hamiltonian                  GFN2-xTB          :
          :  restarted?                       true          :
          :  GBSA solvation                  false          :
          :  PC potential                    false          :
          :  electronic temp.          300.0000000     K    :
          :  accuracy                    0.2000000          :
          :  -> integral cutoff          0.3198970E+02      :
          :  -> integral neglect         0.2000000E-08      :
          :  -> SCF convergence          0.2000000E-06 Eh   :
          :  -> wf. convergence          0.2000000E-04 e    :
          :  Broyden damping             0.4000000          :
          :  net charge                          0          :
          :  unpaired electrons                  0          :
          ...................................................

 iter      E             dE          RMSdq      gap      omega  full diag
   1     -7.4475361 -0.744754E+01  0.276E-01   15.09       0.0  T
   2     -7.4476176 -0.814686E-04  0.151E-01   15.10       1.0  T
   3     -7.4476189 -0.133072E-05  0.542E-02   15.11       1.0  T
   4     -7.4476191 -0.160278E-06  0.753E-03   15.11       4.7  T
   5     -7.4476191 -0.338881E-08  0.168E-03   15.11      21.0  T
   6     -7.4476191 -0.158426E-08  0.392E-04   15.11      90.2  T
   7     -7.4476191 -0.747544E-10  0.380E-05   15.11     931.5  T
   8     -7.4476191 -0.398792E-12  0.189E-05   15.11    1869.0  T

   *** convergence criteria satisfied after 8 iterations ***

         #    Occupation            Energy/Eh            Energy/eV
      -------------------------------------------------------------
         1        2.0000           -0.6042069             -16.4413
         2        2.0000           -0.5639669             -15.3463
         3        2.0000           -0.4956625             -13.4877
         4        2.0000           -0.4937330             -13.4352
         5        2.0000           -0.4648043             -12.6480
         6        2.0000           -0.4346230             -11.8267
         7        2.0000           -0.4303286             -11.7098 (HOMO)
         8                          0.1249328               3.3996 (LUMO)
         9                          0.1336673               3.6373
        10                          0.1454671               3.9584
        11                          0.1802780               4.9056
        12                          0.2211788               6.0186
       ...                                ...                  ...
        14                          0.3050847               8.3018
      -------------------------------------------------------------
                  HL-Gap            0.5552614 Eh           15.1094 eV
             Fermi-level           -0.1526979 Eh           -4.1551 eV

 SCC (total)                   0 d,  0 h,  0 min,  0.020 sec
 SCC setup                      ...        0 min,  0.000 sec (  1.513%)
 Dispersion                     ...        0 min,  0.000 sec (  2.144%)
 classical contributions        ...        0 min,  0.000 sec (  1.471%)
 integral evaluation            ...        0 min,  0.001 sec (  3.046%)
 iterations                     ...        0 min,  0.014 sec ( 72.335%)
 molecular gradient             ...        0 min,  0.004 sec ( 18.520%)
 printout                       ...        0 min,  0.000 sec (  0.733%)

         :::::::::::::::::::::::::::::::::::::::::::::::::::::
         ::                     SUMMARY                     ::
         :::::::::::::::::::::::::::::::::::::::::::::::::::::
         :: total energy              -7.331683965058 Eh    ::
         :: gradient norm              0.023036538452 Eh/a0 ::
         :: HOMO-LUMO gap             15.109432406728 eV    ::
         ::.................................................::
         :: SCC energy                -7.447618894323 Eh    ::
         :: -> isotropic ES            0.001987992890 Eh    ::
         :: -> anisotropic ES          0.003324090446 Eh    ::
         :: -> anisotropic XC          0.005354695253 Eh    ::
         :: -> dispersion             -0.002032449797 Eh    ::
         :: repulsion energy           0.115934929265 Eh    ::
         :: add. restraining           0.000000000000 Eh    ::
         :: total charge              -0.000000000000 e     ::
         :::::::::::::::::::::::::::::::::::::::::::::::::::::


Property printout bound to 'properties.out'

           -------------------------------------------------
          | TOTAL ENERGY               -7.331683965058 Eh   |
          | GRADIENT NORM               0.023036538452 Eh/α |
          | HOMO-LUMO GAP              15.109432406728 eV   |
           -------------------------------------------------

------------------------------------------------------------------------
 * finished run on 2026/03/18 at 21:01:14.091     
------------------------------------------------------------------------
 total:
 * wall-time:     0 d,  0 h,  0 min,  0.046 sec
 *  cpu-time:     0 d,  0 h,  0 min,  0.177 sec
 * ratio c/w:     3.867 speedup
 SCF:
 * wall-time:     0 d,  0 h,  0 min,  0.020 sec
 *  cpu-time:     0 d,  0 h,  0 min,  0.082 sec
 * ratio c/w:     4.117 speedup


-------------------------   --------------------
FINAL SINGLE POINT ENERGY        -7.331683965060
-------------------------   --------------------


-------------
DIPOLE MOMENT
-------------
                                X             Y             Z
Total Dipole Moment    :     -0.00000      -0.00300       0.01000
                        -----------------------------------------
Magnitude (a.u.)       :      0.01044
Magnitude (Debye)      :      0.02654


------------------
CARTESIAN GRADIENT
------------------

   1   C   :    0.014678925    0.001750339   -0.002444975
   2   C   :   -0.010049248    0.003229655   -0.010685785
   3   H   :   -0.003028873    0.000354494    0.001763710
   4   H   :   -0.002633579   -0.002416943    0.001904757
   5   H   :   -0.003671717   -0.000152148    0.001192315
   6   H   :    0.000639126   -0.000871491    0.003045355
   7   H   :    0.002366199   -0.000204346    0.003434065
   8   H   :    0.001699167   -0.001689560    0.001790558

Difference to translation invariance:
           :   -0.0000000000   -0.0000000000   -0.0000000000

Difference to rotation invariance:
           :   -0.0000000005   -0.0000000026   -0.0000000028

Norm of the Cartesian gradient     ...    0.0230365385
RMS gradient                       ...    0.0047023137
MAX gradient                       ...    0.0146789245
------------------------------------------------------------------------------
                         ORCA GEOMETRY RELAXATION STEP
------------------------------------------------------------------------------

Reading the OPT-File                    .... done
Getting information on internals        .... done
Copying old internal coords+grads       .... done
Making the new internal coordinates     .... (2022 redundants) done
Validating the new internal coordinates .... (2022 redundants) done
Calculating the B-matrix                .... done
Calculating the G,G- and P matrices     .... done
Transforming gradient to internals      .... done
Projecting the internal gradient        .... done
Number of atoms                         ....   8
Number of internal coordinates          ....  25
Current Energy                          ....    -7.331683965 Eh
Current gradient norm                   ....     0.023036538 Eh/bohr
Maximum allowed component of the step   ....  0.300
Current trust radius                    ....  0.300
Updating the Hessian (BFGS)             .... done
Forming the augmented Hessian           .... done
Diagonalizing the augmented Hessian     .... done
Last element of RFO vector              ....  0.993679404
Lowest eigenvalues of augmented Hessian:
 -0.001026886  0.013979336  0.100679780  0.114563168  0.128664065
Length of the computed step             ....  0.112969287
The final length of the internal step   ....  0.112969287
Converting the step to Cartesian space:
 Initial RMS(Int)=    0.0225938574
Transforming coordinates:
 Iter   0:  RMS(Cart)=    0.0190260941 RMS(Int)=    0.0225492211
done
Storing new coordinates                 .... done
The predicted energy change is          ....    -0.000519995
Previously predicted energy change      ....    -0.003460316
Actually observed energy change         ....    -0.004180491
Ratio of predicted to observed change   ....     1.208123919
New trust radius                        ....     0.450000000

                                .--------------------.
          ----------------------|Geometry convergence|-------------------------
          Item                value                   Tolerance       Converged
          ---------------------------------------------------------------------
          Energy change      -0.0041804910            0.0000050000      NO
          RMS gradient        0.0027075696            0.0001000000      NO
          MAX gradient        0.0059003458            0.0003000000      NO
          RMS step            0.0225938574            0.0020000000      NO
          MAX step            0.0603875960            0.0040000000      NO
          -------------------------------------------------------------------------
          ........................................................
          Max(Bonds)      0.0102      Max(Angles)    1.39
          Max(Dihed)        3.46      Max(Improp)    0.00
          ---------------------------------------------------------------------

    ---------------------------------------------------------------------------
                         Redundant Internal Coordinates
                            (Angstroem and degrees)

        Definition                    Value    dE/dq     Step     New-Value
    ----------------------------------------------------------------------------
     1. B(C   1,C   0)                1.5156 -0.005411  0.0102    1.5258   
     2. B(H   2,C   0)                1.0891  0.000919 -0.0038    1.0853   
     3. B(H   3,C   0)                1.0907  0.001565 -0.0056    1.0852   
     4. B(H   4,C   0)                1.0941  0.002563 -0.0078    1.0863   
     5. B(H   5,C   1)                1.0958  0.003129 -0.0086    1.0872   
     6. B(H   6,C   1)                1.0855 -0.000529  0.0002    1.0857   
     7. B(H   7,C   1)                1.0890  0.001185 -0.0048    1.0842   
     8. A(H   2,C   0,H   4)          105.75 -0.003591    1.16    106.91   
     9. A(C   1,C   0,H   4)          111.90  0.002082   -0.22    111.68   
    10. A(C   1,C   0,H   2)          113.01  0.003353   -1.04    111.97   
    11. A(H   3,C   0,H   4)          105.44 -0.003571    1.36    106.81   
    12. A(H   2,C   0,H   3)          107.88 -0.001006   -0.37    107.51   
    13. A(C   1,C   0,H   3)          112.35  0.001902   -0.59    111.76   
    14. A(C   0,C   1,H   5)          109.90 -0.003927    1.15    111.05   
    15. A(H   6,C   1,H   7)          108.64  0.001485   -0.66    107.98   
    16. A(H   5,C   1,H   7)          106.01 -0.004205    1.01    107.02   
    17. A(C   0,C   1,H   7)          112.17  0.001698   -0.59    111.57   
    18. A(H   5,C   1,H   6)          106.22 -0.001812    0.85    107.07   
    19. A(C   0,C   1,H   6)          113.47  0.005900   -1.39    112.09   
    20. D(H   5,C   1,C   0,H   3)   -126.56  0.001318   -2.45   -129.00   
    21. D(H   5,C   1,C   0,H   4)     -8.16 -0.000524   -1.25     -9.41   
    22. D(H   6,C   1,C   0,H   2)     -7.67 -0.000153   -1.64     -9.31   
    23. D(H   6,C   1,C   0,H   3)    114.69  0.002502   -3.46    111.23   
    24. D(H   6,C   1,C   0,H   4)   -126.92  0.000661   -2.26   -129.18   
    25. D(H   5,C   1,C   0,H   2)    111.08 -0.001337   -0.62    110.46   
    ----------------------------------------------------------------------------

Geometry step timings:
Preparation and reading OPT file:      0.000 s ( 2.033 %)
Internal coordinates            :      0.000 s ( 2.465 %)
B/P matrices and projection     :      0.000 s (17.498 %)
Hessian update/contruction      :      0.001 s (33.395 %)
Making the step                 :      0.000 s (13.309 %)
Converting the step to Cartesian:      0.000 s ( 3.081 %)
Storing new data                :      0.000 s ( 3.266 %)
Checking convergence            :      0.000 s ( 4.251 %)
Final printing                  :      0.000 s (20.518 %)
Total time                      :      0.002 s

Time for energy+gradient        :      0.065 s
Time for complete geometry iter :      0.068 s

         *************************************************************
         *                GEOMETRY OPTIMIZATION CYCLE   3            *
         *************************************************************
---------------------------------
CARTESIAN COORDINATES (ANGSTROEM)
---------------------------------
  C    -0.760706    0.008492   -0.027941
  C     0.764248   -0.005211    0.019575
  H    -1.147426    0.966656   -0.359986
  H    -1.148636   -0.749816   -0.700296
  H    -1.194461   -0.186100    0.948802
  H     1.122449   -0.042210    1.045430
  H     1.194545    0.880880   -0.436973
  H     1.169988   -0.872693   -0.488612

----------------------------
CARTESIAN COORDINATES (A.U.)
----------------------------
  NO LB    ZA    FRAG    MASS        X           Y           Z
   0 C   6.0000    1    12.011   -1.437526    0.016047   -0.052802
   1 C   6.0000    1    12.011    1.444219   -0.009847    0.036992
   2 H   1.0000    1     1.008   -2.168322    1.826715   -0.680275
   3 H   1.0000    1     1.008   -2.170608   -1.416947   -1.323368
   4 H   1.0000    1     1.008   -2.257204   -0.351677    1.792977
   5 H   1.0000    1     1.008    2.121122   -0.079766    1.975577
   6 H   1.0000    1     1.008    2.257364    1.664622   -0.825759
   7 H   1.0000    1     1.008    2.210957   -1.649150   -0.923344

      -----------------------------------------------------------      
     |                   =====================                   |     
     |                           x T B                           |     
     |                   =====================                   |     
     |                         S. Grimme                         |     
     |          Mulliken Center for Theoretical Chemistry        |     
     |                    University of Bonn                     |     
      -----------------------------------------------------------      

   * xtb version 6.7.1 (edcfbbe) compiled by 'albert@albert-system' on 2024-07-22

   xtb is free software: you can redistribute it and/or modify it under
   the terms of the GNU Lesser General Public License as published by
   the Free Software Foundation, either version 3 of the License, or
   (at your option) any later version.
   
   xtb is distributed in the hope that it will be useful,
   but WITHOUT ANY WARRANTY; without even the implied warranty of
   MERCHANTABILITY or FITNESS FOR A PARTICULAR PURPOSE.  See the
   GNU Lesser General Public License for more details.
   
   Cite this work as:
   * C. Bannwarth, E. Caldeweyher, S. Ehlert, A. Hansen, P. Pracht,
     J. Seibert, S. Spicher, S. Grimme, WIREs Comput. Mol. Sci., 2020, 11,
     e01493. DOI: 10.1002/wcms.1493
   
   for GFN2-xTB:
   * C. Bannwarth, S. Ehlert and S. Grimme., J. Chem. Theory Comput., 2019,
     15, 1652-1671. DOI: 10.1021/acs.jctc.8b01176
   for GFN1-xTB:
   * S. Grimme, C. Bannwarth, P. Shushkov, J. Chem. Theory Comput., 2017,
     13, 1989-2009. DOI: 10.1021/acs.jctc.7b00118
   for GFN0-xTB:
   * P. Pracht, E. Caldeweyher, S. Ehlert, S. Grimme, ChemRxiv, 2019, preprint.
     DOI: 10.26434/chemrxiv.8326202.v1
   for GFN-FF:
   * S. Spicher and S. Grimme, Angew. Chem. Int. Ed., 2020, 59, 15665-15673.
     DOI: 10.1002/anie.202004239
   
   for ALPB and GBSA implicit solvation:
   * S. Ehlert, M. Stahn, S. Spicher, S. Grimme, J. Chem. Theory Comput.,
     2021, 17, 4250-4261. DOI: 10.1021/acs.jctc.1c00471
   
   for ddCOSMO and CPCM-X implicit solvation:
   * M. Stahn, S. Ehlert, S. Grimme, J. Phys. Chem. A,
     2023, XX, XXXX-XXXX. DOI: 10.1021/acs.jpca.3c04382
   
   for DFT-D4:
   * E. Caldeweyher, C. Bannwarth and S. Grimme, J. Chem. Phys., 2017,
     147, 034112. DOI: 10.1063/1.4993215
   * E. Caldeweyher, S. Ehlert, A. Hansen, H. Neugebauer, S. Spicher,
     C. Bannwarth and S. Grimme, J. Chem. Phys., 2019, 150, 154122.
     DOI: 10.1063/1.5090222
   * E. Caldeweyher, J.-M. Mewes, S. Ehlert and S. Grimme, Phys. Chem. Chem. Phys.
     2020, 22, 8499-8512. DOI: 10.1039/D0CP00502A
   
   for sTDA-xTB:
   * S. Grimme and C. Bannwarth, J. Chem. Phys., 2016, 145, 054103.
     DOI: 10.1063/1.4959605
   
   in the mass-spec context:
   * V. Asgeirsson, C. Bauer and S. Grimme, Chem. Sci., 2017, 8, 4879.
     DOI: 10.1039/c7sc00601b
   * J. Koopman and S. Grimme, ACS Omega 2019, 4, 12, 15120-15133.
     DOI: 10.1021/acsomega.9b02011
   
   for metadynamics refer to:
   * S. Grimme, J. Chem. Theory Comput., 2019, 155, 2847-2862
     DOI: 10.1021/acs.jctc.9b00143
   
   for SPH calculations refer to:
   * S. Spicher and S. Grimme, J. Chem. Theory Comput., 2021, 17, 1701-1714
     DOI: 10.1021/acs.jctc.0c01306
   
   for ONIOM refer to:
   * C. Plett, A. Katbashev, S. Ehlert, S. Grimme, M. Bursch,
     Phys. Chem. Chem. Phys., 2023, 25, 17860-17868. DOI: 10.1039/D3CP02178E
   
   for DIPRO refer to:
   * J. Kohn, N. Gildemeister, S. Grimme, D. Fazzi, A. Hansen,
     J. Chem. Phys., 2023, just accepted.
   
   for PTB refer to:
   * S. Grimme, M. Mueller, A. Hansen, J. Chem. Phys., 2023, 158, 124111.
     DOI: 10.1063/5.0137838
   
   with help from (in alphabetical order)
   P. Atkinson, C. Bannwarth, F. Bohle, G. Brandenburg, E. Caldeweyher
   M. Checinski, S. Dohm, S. Ehlert, S. Ehrlich, I. Gerasimov, C. Hölzer
   A. Katbashev, J. Kohn, J. Koopman, C. Lavigne, S. Lehtola, F. März, M. Müller,
   F. Musil, H. Neugebauer, J. Pisarek, C. Plett, P. Pracht, F. Pultar,
   J. Seibert, P. Shushkov, S. Spicher, M. Stahn, M. Steiner, T. Strunk,
   J. Stückrath, T. Rose, and J. Unsleber
   
 * started run on 2026/03/18 at 21:01:14.112     
   ID    Z sym.   atoms
    1    6 C      1, 2
    2    1 H      3-8

           -------------------------------------------------
          |                Calculation Setup                |
           -------------------------------------------------

          program call               : /apps/eb/ORCA/6.1.1-gompi-2024a-avx2/bin/otool_xtb goat_XTB.xyz --grad -c 0 -u 0 -P 8 --namespace goat --input goat_XTB.input.tmp --acc 0.200000
          hostname                   : c5-9
          calculation namespace      : goat
          coordinate file            : goat_XTB.xyz
          omp threads                :                     8


           -------------------------------------------------
          |                 G F N 2 - x T B                 |
           -------------------------------------------------

        Reference                      10.1021/acs.jctc.8b01176
      * Hamiltonian:
        H0-scaling (s, p, d)           1.850000    2.230000    2.230000
        zeta-weighting                 0.500000
      * Dispersion:
        s8                             2.700000
        a1                             0.520000
        a2                             5.000000
        s9                             5.000000
      * Repulsion:
        kExp                           1.500000    1.000000
        rExp                           1.000000
      * Coulomb:
        alpha                          2.000000
        third order                    shell-resolved
        anisotropic                    true
        a3                             3.000000
        a5                             4.000000
        cn-shift                       1.200000
        cn-exp                         4.000000
        max-rad                        5.000000

q/qsh data taken from xtbrestart
CAMM data taken from xtbrestart

          ...................................................
          :                      SETUP                      :
          :.................................................:
          :  # basis functions                  14          :
          :  # atomic orbitals                  14          :
          :  # shells                           10          :
          :  # electrons                        14          :
          :  max. iterations                   250          :
          :  Hamiltonian                  GFN2-xTB          :
          :  restarted?                       true          :
          :  GBSA solvation                  false          :
          :  PC potential                    false          :
          :  electronic temp.          300.0000000     K    :
          :  accuracy                    0.2000000          :
          :  -> integral cutoff          0.3198970E+02      :
          :  -> integral neglect         0.2000000E-08      :
          :  -> SCF convergence          0.2000000E-06 Eh   :
          :  -> wf. convergence          0.2000000E-04 e    :
          :  Broyden damping             0.4000000          :
          :  net charge                          0          :
          :  unpaired electrons                  0          :
          ...................................................

 iter      E             dE          RMSdq      gap      omega  full diag
   1     -7.4512513 -0.745125E+01  0.123E-01   15.17       0.0  T
   2     -7.4512555 -0.419130E-05  0.703E-02   15.18       1.0  T
   3     -7.4512556 -0.979784E-07  0.111E-02   15.18       3.2  T
   4     -7.4512556 -0.276983E-08  0.147E-03   15.18      24.1  T
   5     -7.4512556 -0.111223E-08  0.229E-04   15.18     154.3  T
   6     -7.4512556 -0.180300E-10  0.117E-04   15.18     302.4  T
   7     -7.4512556 -0.250466E-11  0.448E-06   15.18    7891.9  T

   *** convergence criteria satisfied after 7 iterations ***

         #    Occupation            Energy/Eh            Energy/eV
      -------------------------------------------------------------
         1        2.0000           -0.6039384             -16.4340
         2        2.0000           -0.5640724             -15.3492
         3        2.0000           -0.4951201             -13.4729
         4        2.0000           -0.4945004             -13.4560
         5        2.0000           -0.4631427             -12.6028
         6        2.0000           -0.4340697             -11.8116
         7        2.0000           -0.4328314             -11.7779 (HOMO)
         8                          0.1249277               3.3995 (LUMO)
         9                          0.1448471               3.9415
        10                          0.1501513               4.0858
        11                          0.1841050               5.0098
        12                          0.2207805               6.0077
       ...                                ...                  ...
        14                          0.3051582               8.3038
      -------------------------------------------------------------
                  HL-Gap            0.5577591 Eh           15.1774 eV
             Fermi-level           -0.1539518 Eh           -4.1892 eV

 SCC (total)                   0 d,  0 h,  0 min,  0.009 sec
 SCC setup                      ...        0 min,  0.000 sec (  2.607%)
 Dispersion                     ...        0 min,  0.000 sec (  2.414%)
 classical contributions        ...        0 min,  0.000 sec (  1.063%)
 integral evaluation            ...        0 min,  0.000 sec (  3.201%)
 iterations                     ...        0 min,  0.006 sec ( 68.674%)
 molecular gradient             ...        0 min,  0.002 sec ( 20.040%)
 printout                       ...        0 min,  0.000 sec (  1.395%)

         :::::::::::::::::::::::::::::::::::::::::::::::::::::
         ::                     SUMMARY                     ::
         :::::::::::::::::::::::::::::::::::::::::::::::::::::
         :: total energy              -7.332351111517 Eh    ::
         :: gradient norm              0.007928026767 Eh/a0 ::
         :: HOMO-LUMO gap             15.177398772383 eV    ::
         ::.................................................::
         :: SCC energy                -7.451255459605 Eh    ::
         :: -> isotropic ES            0.002075918292 Eh    ::
         :: -> anisotropic ES          0.003239612024 Eh    ::
         :: -> anisotropic XC          0.005300347001 Eh    ::
         :: -> dispersion             -0.002029655544 Eh    ::
         :: repulsion energy           0.118904348088 Eh    ::
         :: add. restraining           0.000000000000 Eh    ::
         :: total charge               0.000000000000 e     ::
         :::::::::::::::::::::::::::::::::::::::::::::::::::::


Property printout bound to 'properties.out'

           -------------------------------------------------
          | TOTAL ENERGY               -7.332351111517 Eh   |
          | GRADIENT NORM               0.007928026767 Eh/α |
          | HOMO-LUMO GAP              15.177398772383 eV   |
           -------------------------------------------------

------------------------------------------------------------------------
 * finished run on 2026/03/18 at 21:01:14.145     
------------------------------------------------------------------------
 total:
 * wall-time:     0 d,  0 h,  0 min,  0.031 sec
 *  cpu-time:     0 d,  0 h,  0 min,  0.140 sec
 * ratio c/w:     4.492 speedup
 SCF:
 * wall-time:     0 d,  0 h,  0 min,  0.010 sec
 *  cpu-time:     0 d,  0 h,  0 min,  0.058 sec
 * ratio c/w:     6.009 speedup


-------------------------   --------------------
FINAL SINGLE POINT ENERGY        -7.332351111520
-------------------------   --------------------


-------------
DIPOLE MOMENT
-------------
                                X             Y             Z
Total Dipole Moment    :     -0.00000      -0.00200       0.00300
                        -----------------------------------------
Magnitude (a.u.)       :      0.00361
Magnitude (Debye)      :      0.00916


------------------
CARTESIAN GRADIENT
------------------

   1   C   :    0.004256465    0.000056326   -0.000552532
   2   C   :   -0.002822137    0.000008468   -0.003141427
   3   H   :   -0.000986777   -0.001838838    0.000669486
   4   H   :   -0.000777987    0.000780289    0.002230424
   5   H   :   -0.001080813    0.000687700   -0.001659743
   6   H   :    0.000370439   -0.000693220   -0.000936929
   7   H   :    0.001012012   -0.000600023    0.001794536
   8   H   :    0.000028798    0.001599296    0.001596185

Difference to translation invariance:
           :    0.0000000000   -0.0000000000   -0.0000000000

Difference to rotation invariance:
           :    0.0000000000   -0.0000000023   -0.0000000018

Norm of the Cartesian gradient     ...    0.0079280268
RMS gradient                       ...    0.0016183017
MAX gradient                       ...    0.0042564648
------------------------------------------------------------------------------
                         ORCA GEOMETRY RELAXATION STEP
------------------------------------------------------------------------------

Reading the OPT-File                    .... done
Getting information on internals        .... done
Copying old internal coords+grads       .... done
Making the new internal coordinates     .... (2022 redundants) done
Validating the new internal coordinates .... (2022 redundants) done
Calculating the B-matrix                .... done
Calculating the G,G- and P matrices     .... done
Transforming gradient to internals      .... done
Projecting the internal gradient        .... done
Number of atoms                         ....   8
Number of internal coordinates          ....  25
Current Energy                          ....    -7.332351112 Eh
Current gradient norm                   ....     0.007928027 Eh/bohr
Maximum allowed component of the step   ....  0.300
Current trust radius                    ....  0.450
Updating the Hessian (BFGS)             .... done
Forming the augmented Hessian           .... done
Diagonalizing the augmented Hessian     .... done
Last element of RFO vector              ....  0.990544065
Lowest eigenvalues of augmented Hessian:
 -0.000369621  0.011336496  0.095152637  0.111137334  0.128363286
Length of the computed step             ....  0.138504642
The final length of the internal step   ....  0.138504642
Converting the step to Cartesian space:
 Initial RMS(Int)=    0.0277009284
Transforming coordinates:
 Iter   0:  RMS(Cart)=    0.0246358717 RMS(Int)=    0.0276174292
done
Storing new coordinates                 .... done
The predicted energy change is          ....    -0.000188356
Previously predicted energy change      ....    -0.000519995
Actually observed energy change         ....    -0.000667146
Ratio of predicted to observed change   ....     1.282985105
New trust radius                        ....     0.450000000

                                .--------------------.
          ----------------------|Geometry convergence|-------------------------
          Item                value                   Tolerance       Converged
          ---------------------------------------------------------------------
          Energy change      -0.0006671465            0.0000050000      NO
          RMS gradient        0.0012704591            0.0001000000      NO
          MAX gradient        0.0022540746            0.0003000000      NO
          RMS step            0.0277009284            0.0020000000      NO
          MAX step            0.0675017963            0.0040000000      NO
          -------------------------------------------------------------------------
          ........................................................
          Max(Bonds)      0.0059      Max(Angles)    1.00
          Max(Dihed)        3.87      Max(Improp)    0.00
          ---------------------------------------------------------------------

    ---------------------------------------------------------------------------
                         Redundant Internal Coordinates
                            (Angstroem and degrees)

        Definition                    Value    dE/dq     Step     New-Value
    ----------------------------------------------------------------------------
     1. B(C   1,C   0)                1.5258 -0.001434  0.0059    1.5317   
     2. B(H   2,C   0)                1.0853 -0.001477  0.0010    1.0863   
     3. B(H   3,C   0)                1.0852 -0.001649  0.0008    1.0859   
     4. B(H   4,C   0)                1.0863 -0.001184 -0.0008    1.0855   
     5. B(H   5,C   1)                1.0872 -0.000738 -0.0017    1.0855   
     6. B(H   6,C   1)                1.0857 -0.000843  0.0012    1.0869   
     7. B(H   7,C   1)                1.0842 -0.002017  0.0017    1.0859   
     8. A(H   2,C   0,H   4)          106.92 -0.001836    0.86    107.77   
     9. A(C   1,C   0,H   4)          111.68  0.001479   -0.34    111.34   
    10. A(C   1,C   0,H   2)          111.94  0.001708   -0.80    111.14   
    11. A(H   3,C   0,H   4)          106.81 -0.001879    1.00    107.81   
    12. A(H   2,C   0,H   3)          107.46 -0.001139   -0.01    107.45   
    13. A(C   1,C   0,H   3)          111.74  0.001297   -0.53    111.21   
    14. A(C   0,C   1,H   5)          111.04 -0.000163    0.43    111.47   
    15. A(H   6,C   1,H   7)          107.91 -0.000288   -0.22    107.69   
    16. A(H   5,C   1,H   7)          106.96 -0.001581    0.66    107.62   
    17. A(C   0,C   1,H   7)          111.51  0.000783   -0.44    111.07   
    18. A(H   5,C   1,H   6)          107.10 -0.001254    0.65    107.75   
    19. A(C   0,C   1,H   6)          112.07  0.002254   -0.95    111.11   
    20. D(H   5,C   1,C   0,H   3)   -129.01  0.000752   -3.37   -132.38   
    21. D(H   5,C   1,C   0,H   4)     -9.43  0.000255   -2.68    -12.11   
    22. D(H   6,C   1,C   0,H   2)     -9.31  0.000295   -2.87    -12.18   
    23. D(H   6,C   1,C   0,H   3)    111.27  0.000940   -3.87    107.41   
    24. D(H   6,C   1,C   0,H   4)   -129.15  0.000442   -3.18   -132.33   
    25. D(H   5,C   1,C   0,H   2)    110.42  0.000108   -2.37    108.04   
    ----------------------------------------------------------------------------

Geometry step timings:
Preparation and reading OPT file:      0.000 s ( 2.221 %)
Internal coordinates            :      0.000 s ( 2.557 %)
B/P matrices and projection     :      0.000 s (19.112 %)
Hessian update/contruction      :      0.000 s (22.409 %)
Making the step                 :      0.000 s (20.188 %)
Converting the step to Cartesian:      0.000 s ( 3.163 %)
Storing new data                :      0.000 s ( 3.499 %)
Checking convergence            :      0.000 s ( 4.509 %)
Final printing                  :      0.000 s (22.207 %)
Total time                      :      0.001 s

Time for energy+gradient        :      0.050 s
Time for complete geometry iter :      0.053 s

         *************************************************************
         *                GEOMETRY OPTIMIZATION CYCLE   4            *
         *************************************************************
---------------------------------
CARTESIAN COORDINATES (ANGSTROEM)
---------------------------------
  C    -0.765389    0.006651   -0.023985
  C     0.765345   -0.007086    0.027372
  H    -1.137661    0.976024   -0.342916
  H    -1.141318   -0.732651   -0.724970
  H    -1.195259   -0.209581    0.949055
  H     1.128394   -0.018279    1.050272
  H     1.181335    0.869507   -0.462446
[...]
     C. Bannwarth and S. Grimme, J. Chem. Phys., 2019, 150, 154122.
     DOI: 10.1063/1.5090222
   * E. Caldeweyher, J.-M. Mewes, S. Ehlert and S. Grimme, Phys. Chem. Chem. Phys.
     2020, 22, 8499-8512. DOI: 10.1039/D0CP00502A
   
   for sTDA-xTB:
   * S. Grimme and C. Bannwarth, J. Chem. Phys., 2016, 145, 054103.
     DOI: 10.1063/1.4959605
   
   in the mass-spec context:
   * V. Asgeirsson, C. Bauer and S. Grimme, Chem. Sci., 2017, 8, 4879.
     DOI: 10.1039/c7sc00601b
   * J. Koopman and S. Grimme, ACS Omega 2019, 4, 12, 15120-15133.
     DOI: 10.1021/acsomega.9b02011
   
   for metadynamics refer to:
   * S. Grimme, J. Chem. Theory Comput., 2019, 155, 2847-2862
     DOI: 10.1021/acs.jctc.9b00143
   
   for SPH calculations refer to:
   * S. Spicher and S. Grimme, J. Chem. Theory Comput., 2021, 17, 1701-1714
     DOI: 10.1021/acs.jctc.0c01306
   
   for ONIOM refer to:
   * C. Plett, A. Katbashev, S. Ehlert, S. Grimme, M. Bursch,
     Phys. Chem. Chem. Phys., 2023, 25, 17860-17868. DOI: 10.1039/D3CP02178E
   
   for DIPRO refer to:
   * J. Kohn, N. Gildemeister, S. Grimme, D. Fazzi, A. Hansen,
     J. Chem. Phys., 2023, just accepted.
   
   for PTB refer to:
   * S. Grimme, M. Mueller, A. Hansen, J. Chem. Phys., 2023, 158, 124111.
     DOI: 10.1063/5.0137838
   
   with help from (in alphabetical order)
   P. Atkinson, C. Bannwarth, F. Bohle, G. Brandenburg, E. Caldeweyher
   M. Checinski, S. Dohm, S. Ehlert, S. Ehrlich, I. Gerasimov, C. Hölzer
   A. Katbashev, J. Kohn, J. Koopman, C. Lavigne, S. Lehtola, F. März, M. Müller,
   F. Musil, H. Neugebauer, J. Pisarek, C. Plett, P. Pracht, F. Pultar,
   J. Seibert, P. Shushkov, S. Spicher, M. Stahn, M. Steiner, T. Strunk,
   J. Stückrath, T. Rose, and J. Unsleber
   
 * started run on 2026/03/18 at 21:01:14.875     
   ID    Z sym.   atoms
    1    6 C      1, 2
    2    1 H      3-8

           -------------------------------------------------
          |                Calculation Setup                |
           -------------------------------------------------

          program call               : /apps/eb/ORCA/6.1.1-gompi-2024a-avx2/bin/otool_xtb goat_XTB.xyz --grad -c 0 -u 0 -P 8 --namespace goat --input goat_XTB.input.tmp --acc 0.200000
          hostname                   : c5-9
          calculation namespace      : goat
          coordinate file            : goat_XTB.xyz
          omp threads                :                     8


           -------------------------------------------------
          |                 G F N 2 - x T B                 |
           -------------------------------------------------

        Reference                      10.1021/acs.jctc.8b01176
      * Hamiltonian:
        H0-scaling (s, p, d)           1.850000    2.230000    2.230000
        zeta-weighting                 0.500000
      * Dispersion:
        s8                             2.700000
        a1                             0.520000
        a2                             5.000000
        s9                             5.000000
      * Repulsion:
        kExp                           1.500000    1.000000
        rExp                           1.000000
      * Coulomb:
        alpha                          2.000000
        third order                    shell-resolved
        anisotropic                    true
        a3                             3.000000
        a5                             4.000000
        cn-shift                       1.200000
        cn-exp                         4.000000
        max-rad                        5.000000

q/qsh data taken from xtbrestart
CAMM data taken from xtbrestart

          ...................................................
          :                      SETUP                      :
          :.................................................:
          :  # basis functions                  14          :
          :  # atomic orbitals                  14          :
          :  # shells                           10          :
          :  # electrons                        14          :
          :  max. iterations                   250          :
          :  Hamiltonian                  GFN2-xTB          :
          :  restarted?                       true          :
          :  GBSA solvation                  false          :
          :  PC potential                    false          :
          :  electronic temp.          300.0000000     K    :
          :  accuracy                    0.2000000          :
          :  -> integral cutoff          0.3198970E+02      :
          :  -> integral neglect         0.2000000E-08      :
          :  -> SCF convergence          0.2000000E-06 Eh   :
          :  -> wf. convergence          0.2000000E-04 e    :
          :  Broyden damping             0.4000000          :
          :  net charge                          0          :
          :  unpaired electrons                  0          :
          ...................................................

 iter      E             dE          RMSdq      gap      omega  full diag
   1     -7.4538914 -0.745389E+01  0.132E-03   15.51       0.0  T
   2     -7.4538914 -0.401998E-10  0.776E-04   15.51      45.6  T
   3     -7.4538914 -0.140243E-10  0.250E-05   15.51    1411.6  T
   4     -7.4538914 -0.959233E-12  0.137E-05   15.51    2574.1  T

   *** convergence criteria satisfied after 4 iterations ***

         #    Occupation            Energy/Eh            Energy/eV
      -------------------------------------------------------------
         1        2.0000           -0.6047756             -16.4568
         2        2.0000           -0.5631205             -15.3233
         3        2.0000           -0.4954061             -13.4807
         4        2.0000           -0.4954041             -13.4806
         5        2.0000           -0.4610685             -12.5463
         6        2.0000           -0.4353396             -11.8462
         7        2.0000           -0.4353375             -11.8461 (HOMO)
         8                          0.1345097               3.6602 (LUMO)
         9                          0.1675292               4.5587
        10                          0.1675387               4.5590
        11                          0.1748323               4.7574
        12                          0.2019680               5.4958
       ...                                ...                  ...
        14                          0.2817537               7.6669
      -------------------------------------------------------------
                  HL-Gap            0.5698472 Eh           15.5063 eV
             Fermi-level           -0.1504139 Eh           -4.0930 eV

 SCC (total)                   0 d,  0 h,  0 min,  0.011 sec
 SCC setup                      ...        0 min,  0.000 sec (  3.592%)
 Dispersion                     ...        0 min,  0.001 sec (  4.668%)
 classical contributions        ...        0 min,  0.000 sec (  3.376%)
 integral evaluation            ...        0 min,  0.001 sec (  4.736%)
 iterations                     ...        0 min,  0.005 sec ( 47.363%)
 molecular gradient             ...        0 min,  0.004 sec ( 34.320%)
 printout                       ...        0 min,  0.000 sec (  1.441%)

         :::::::::::::::::::::::::::::::::::::::::::::::::::::
         ::                     SUMMARY                     ::
         :::::::::::::::::::::::::::::::::::::::::::::::::::::
         :: total energy              -7.336370674812 Eh    ::
         :: gradient norm              0.000022967511 Eh/a0 ::
         :: HOMO-LUMO gap             15.506331139419 eV    ::
         ::.................................................::
         :: SCC energy                -7.453891241719 Eh    ::
         :: -> isotropic ES            0.002037832395 Eh    ::
         :: -> anisotropic ES          0.003091837842 Eh    ::
         :: -> anisotropic XC          0.005384509414 Eh    ::
         :: -> dispersion             -0.002033937697 Eh    ::
         :: repulsion energy           0.117520566907 Eh    ::
         :: add. restraining           0.000000000000 Eh    ::
         :: total charge               0.000000000000 e     ::
         :::::::::::::::::::::::::::::::::::::::::::::::::::::


Property printout bound to 'properties.out'

           -------------------------------------------------
          | TOTAL ENERGY               -7.336370674812 Eh   |
          | GRADIENT NORM               0.000022967511 Eh/α |
          | HOMO-LUMO GAP              15.506331139419 eV   |
           -------------------------------------------------

------------------------------------------------------------------------
 * finished run on 2026/03/18 at 21:01:14.919     
------------------------------------------------------------------------
 total:
 * wall-time:     0 d,  0 h,  0 min,  0.042 sec
 *  cpu-time:     0 d,  0 h,  0 min,  0.158 sec
 * ratio c/w:     3.728 speedup
 SCF:
 * wall-time:     0 d,  0 h,  0 min,  0.011 sec
 *  cpu-time:     0 d,  0 h,  0 min,  0.045 sec
 * ratio c/w:     3.953 speedup


-------------------------   --------------------
FINAL SINGLE POINT ENERGY        -7.336370674810
-------------------------   --------------------


-------------
DIPOLE MOMENT
-------------
                                X             Y             Z
Total Dipole Moment    :     -0.00000      -0.00000       0.00000
                        -----------------------------------------
Magnitude (a.u.)       :      0.00000
Magnitude (Debye)      :      0.00000

                                *** OPTIMIZATION RUN DONE ***

		     ------------------------------
			                   _   
			                  | |  
			  __ _  ___   __ _| |_ 
			 / _` |/ _ \ / _` | __|
			| (_| | (_) | (_| | |_ 
			 \__, |\___/ \__,_|\__|
			 __/ |                
			|___/                 

		      A Global Optimizer Algorithm
		     ------------------------------

Global parameters
-----------------
  GOAT version                               ... default
  Minimum global steps                       ... 3
  Number of base workers                     ... 4
  Split workers by                           ... 2
  Final number of workers                    ... 8
  Number of available CPUs                   ... 8
  Parameter list (worker : temperature)      ...  0 : 2903.97,  1 : 1451.98, 
                                                  2 :  725.99,  3 :  363.00, 
                                                  4 : 2903.97,  5 : 1451.98, 
                                                  6 :  725.99,  7 :  363.00 
  GradComp (mean : sigma)                    ... 1.00 : 0.50
  Number of fragments                        ... 1
  Number of atoms                            ... 8
  Flexibility parameter                      ... 1.00
  Optimizations per global step              ... 120
  Optimizations per worker                   ... 15
  *Reached the min. opt. per worker: max(flex * NAtoms, 15) = 15

Filtering criteria
------------------
  RMSD                                       ... 0.125 Angs (atom. pos.)
  EnDiff                                     ... 0.100 kcal/mol
  RotConst                                   ... 1.00-2.50 %
  Maximum Conf. Energy                       ... 6.000 kcal/mol

Thermodynamics
--------------
  Ensemble temperature                       ... 298.15 K
  Degeneracy of conformers                   ... 1
  *No rotamers will be included in Gconf

------------------------------------------------------------------------------
   Iter  MinTemp     MaxEn       GradComp    NOpt   NProcs    Output
------------------------------------------------------------------------------
List of participating nodes    ...  goat.goat.0.hostnames

   1     1451.98     24.00    1.00 : 0.50      15        1    goat.goat.0.1.out
   2      725.99     24.00    1.00 : 0.50      15        1    goat.goat.0.2.out
   4     2903.97     24.00    1.00 : 0.50      15        1    goat.goat.0.4.out
   3      363.00     24.00    1.00 : 0.50      15        1    goat.goat.0.3.out
   7      363.00     24.00    1.00 : 0.50      15        1    goat.goat.0.7.out
   6      725.99     24.00    1.00 : 0.50      15        1    goat.goat.0.6.out
   0     2903.97     24.00    1.00 : 0.50      15        1    goat.goat.0.0.out
   5     1451.98     24.00    1.00 : 0.50      15        1    goat.goat.0.5.out

			     GOAT Global Iter 1
		Iter    Min En       Sconf       Gconf   
		        Hartree      cal/(molK)  kcal/mol
		=========================================

		   1     -7.336371   0.133       -0.007

List of participating nodes    ...  goat.goat.1.hostnames

   0     2903.97     24.00    1.00 : 0.50      15        1    goat.goat.1.0.out
   4     2903.97     24.00    1.00 : 0.50      15        1    goat.goat.1.4.out
   5     1451.98     24.00    1.00 : 0.50      15        1    goat.goat.1.5.out
   2      725.99     24.00    1.00 : 0.50      15        1    goat.goat.1.2.out
   6      725.99     24.00    1.00 : 0.50      15        1    goat.goat.1.6.out
   1     1451.98     24.00    1.00 : 0.50      15        1    goat.goat.1.1.out
   7      363.00     24.00    1.00 : 0.50      15        1    goat.goat.1.7.out
   3      363.00     24.00    1.00 : 0.50      15        1    goat.goat.1.3.out

			     GOAT Global Iter 2
		Iter    Min En       Sconf       Gconf   
		        Hartree      cal/(molK)  kcal/mol
		=========================================

		   1     -7.336371   0.133       -0.007
		   2     -7.336371   0.133       -0.007

List of participating nodes    ...  goat.goat.2.hostnames

   0     2903.97     24.00    1.00 : 0.50      15        1    goat.goat.2.0.out
   1     1451.98     24.00    1.00 : 0.50      15        1    goat.goat.2.1.out
   3      363.00     24.00    1.00 : 0.50      15        1    goat.goat.2.3.out
   4     2903.97     24.00    1.00 : 0.50      15        1    goat.goat.2.4.out
   5     1451.98     24.00    1.00 : 0.50      15        1    goat.goat.2.5.out
   6      725.99     24.00    1.00 : 0.50      15        1    goat.goat.2.6.out
   2      725.99     24.00    1.00 : 0.50      15        1    goat.goat.2.2.out
   7      363.00     24.00    1.00 : 0.50      15        1    goat.goat.2.7.out

			     GOAT Global Iter 3
		Iter    Min En       Sconf       Gconf   
		        Hartree      cal/(molK)  kcal/mol
		=========================================

		   1     -7.336371   0.133       -0.007
		   2     -7.336371   0.133       -0.007
		   3     -7.336371   0.133       -0.007

		Global minimum found!
		Writing structure to goat.globalminimum.xyz

		# Final ensemble info #
		Conformer     Energy     Degen.   % total   % cumul.  
		              (kcal/mol)
		------------------------------------------------------
		        0     0.000	     1      98.76      98.76
		        1     2.592	     1       1.24     100.00

		Conformers below 3 kcal/mol: 2
		Lowest energy conformer    : -7.336371 Eh
		Sconf at 298.15 K          :  0.13 cal/(molK)
		Gconf at 298.15 K          : -0.01 kcal/mol

		Writing final ensemble to goat.finalensemble.xyz

--------------------------------
SUGGESTED CITATIONS FOR THIS RUN
--------------------------------

Below you find a list of papers that are relevant to this ORCA run
We neither can nor want to force you to cite these papers, but we appreciate if you do
You receive ORCA, which is the product of decades of hard work by many enthusiastic individuals, for free
The only thing we kindly ask in return is that you cite our papers,
We deeply appreciate it, if you show your appreciation for ORCA by not just citing the generic ORCA reference.

Please note that relegating all ORCA citations to the supporting information does *not* help us.
SI sections are not indexed - citations you put there will not count into any citation statistics
But we need these citations in order to attract the funding resources that allow us to do what we are doing

Therefore, if you are a happy ORCA user, please consider citing a few of the papers listed below in the main body of your paper

In addition to the list printed below, the program has created the file goat.bibtex that contains the list in bibtex format
You can import this file easily into all common literature databanks and citation aid programs

It goes without saying that in many instances, there are alternative algorithms to achieve similar
results as the ones you have gotten from ORCA. It is, of course, also the case that in some instances
ORCA just re-implements algorithms worked out by others. We are fully aware of that and we are also
fully appreciative of our colleagues work. Hence this citation list should not be read as indicating
that the listed papers, which are focused on our own work, are the only ones worth citing. It simply
meant to make it easier for users to cite ORCA specific papers. It is not a substitute for doing your
own literature research and citing the relevant literature in a scientifically appropriate manner.

List of essential papers. We consider these as the minimum necessary citations

  1. Bannwarth, C.; Ehlert, S.; Grimme, S.
     GFN2-xTB—An Accurate and Broadly Parametrized Self-Consistent Tight-Binding Quantum Chemical Method with Multipole Electrostatics and Density-Dependent Dispersion Contributions
     J. Chem. Theory Comput. 2019 15(3), 1652-1671
     doi.org/10.1021/acs.jctc.8b01176
  2. Neese, F.
     Software update: the ORCA program system, version 6.0
     WIRES Comput. Molec. Sci. 2025 15(1), e70019
     doi.org/10.1002/wcms.70019
  3. de Souza, B.
     GOAT: A Global Optimization Algorithm for Molecules and Atomic Clusters
     Angewandte Chemie 2025 64(18), e202500393
     doi.org/10.1002/anie.202500393

List of papers to cite with high priority. The work reported in these papers was absolutely
necessary for this run to complete.
Our perspective: the developers of density functionals and basis sets usually get cited in chemistry papers
Good! But without the algorithms to do something with them, the functionals or basis sets would not do anything.
Hence, in our opinion, the algorithm design and method developments papers are equally worthy of getting cited

  1. Bannwarth, C.; Caldeweyher, E.; Ehlert, S.; Hansen, A.; Pracht, P.; Seibert, J.; Spicher, S.; Grimme, S.
     Extended tight-binding quantum chemistry methods
     WIRES Comput. Molec. Sci. 2020 11(2), e1493
     doi.org/10.1002/wcms.1493

List of suggested additional citations. These are papers that are important in the 'surrounding' of 
of this run, or papers that preceded the highly important papers. If you like your results we are grateful for a citation.

  1. Neese, F.
     The ORCA program system
     WIRES Comput. Molec. Sci. 2012 2(1), 73-78
     doi.org/10.1002/wcms.81
  2. Neese, F.
     Software update: the ORCA program system, version 4.0
     WIRES Comput. Molec. Sci. 2018 8(1), 1-6
     doi.org/10.1002/wcms.1327
  3. Neese, F.; Wennmohs, F.; Becker, U.; Riplinger, C.
     The ORCA quantum chemistry program package
     J. Chem. Phys. 2020 152(22), 224108
     doi.org/10.1063/5.0004608
  4. Neese, F.
     Software update: The ORCA program system—Version 5.0
     WIRES Comput. Molec. Sci. 2022 12(1), e1606
     doi.org/10.1002/wcms.1606

List of optional additional citations

  1. Neese, F.
     Approximate second-order SCF convergence for spin unrestricted wavefunctions
     Chem. Phys. Lett. 2000 325(1-3), 93-98
     doi.org/10.1016/s0009-2614(00)00662-x

Timings for individual modules:

Sum of individual times          ...       72.377 sec (=   1.206 min)
Geometry relaxation              ...        0.041 sec (=   0.001 min)   0.1 %
GOAT                             ...       71.360 sec (=   1.189 min)  98.6 %
XTB module                       ...        0.976 sec (=   0.016 min)   1.3 %
                             ****ORCA TERMINATED NORMALLY****
TOTAL RUN TIME: 0 days 0 hours 1 minutes 14 seconds 672 msec
